  ABINIT 9.6.2
  
-instrng: 98 lines of input have been read from file casa


.Version 9.6.2 of ABINIT 
.(MPI version, prepared for a x86_64_linux_gnu11.2 computer) 

.Copyright (C) 1998-2021 ABINIT group . 
 ABINIT comes with ABSOLUTELY NO WARRANTY.
 It is free software, and you are welcome to redistribute it
 under certain conditions (GNU General Public License,
 see ~abinit/COPYING or http://www.gnu.org/copyleft/gpl.txt).

 ABINIT is a project of the Universite Catholique de Louvain,
 Corning Inc. and other collaborators, see ~abinit/doc/developers/contributors.txt .
 Please read https://docs.abinit.org/theory/acknowledgments for suggested
 acknowledgments of the ABINIT effort.
 For more information, see https://www.abinit.org .

.Starting date : Wed 14 Dec 2022.
- ( at 22h20 )
  

 ++++++++++++++++++++++++++++++++++++++++++++++++++++++++++++++++++++++++++++++

 === Build Information === 
  Version       : 9.6.2
  Build target  : x86_64_linux_gnu11.2
  Build date    : 20220106

 === Compiler Suite === 
  C compiler       : gnu11.2
  C++ compiler     : gnu11.2
  Fortran compiler : gnu11.2
  CFLAGS           : -g -O2 -ffile-prefix-map=/build/abinit-GxX7li/abinit-9.6.2=. -fstack-protector-strong -Wformat -Werror=format-security
  CXXFLAGS         : -g -O2 -ffile-prefix-map=/build/abinit-GxX7li/abinit-9.6.2=. -fstack-protector-strong -Wformat -Werror=format-security
  FCFLAGS          : -g -O2 -ffile-prefix-map=/build/abinit-GxX7li/abinit-9.6.2=. -fstac ...
  FC_LDFLAGS       : 

 === Optimizations === 
  Debug level        : basic
  Optimization level : standard
  Architecture       : intel_xeon

 === Multicore === 
  Parallel build : 
  Parallel I/O   : 
  openMP support : 
  GPU support    : 

 === Connectors / Fallbacks === 
  LINALG flavor  : netlib
  FFT flavor     : goedecker
  HDF5           : yes
  NetCDF         : yes
  NetCDF Fortran : yes
  LibXC          : yes
  Wannier90      : no

 === Experimental features === 
  Exports             : 
  GW double-precision : 

 ++++++++++++++++++++++++++++++++++++++++++++++++++++++++++++++++++++++++++++++


 ++++++++++++++++++++++++++++++++++++++++++++++++++++++++++++++++++++++++++++++
 Default optimizations:
   --- None ---


 ++++++++++++++++++++++++++++++++++++++++++++++++++++++++++++++++++++++++++++++


 ++++++++++++++++++++++++++++++++++++++++++++++++++++++++++++++++++++++++++++++
 CPP options activated during the build:

                    CC_GNU                   CXX_GNU                    FC_GNU
 
 HAVE_FC_ALLOCATABLE_DT...             HAVE_FC_ASYNC         HAVE_FC_BACKTRACE
 
  HAVE_FC_COMMAND_ARGUMENT      HAVE_FC_COMMAND_LINE        HAVE_FC_CONTIGUOUS
 
           HAVE_FC_CPUTIME              HAVE_FC_EXIT             HAVE_FC_FLUSH
 
             HAVE_FC_GAMMA            HAVE_FC_GETENV   HAVE_FC_IEEE_ARITHMETIC
 
   HAVE_FC_IEEE_EXCEPTIONS          HAVE_FC_INT_QUAD             HAVE_FC_IOMSG
 
     HAVE_FC_ISO_C_BINDING  HAVE_FC_ISO_FORTRAN_2008        HAVE_FC_LONG_LINES
 
        HAVE_FC_MOVE_ALLOC  HAVE_FC_ON_THE_FLY_SHAPE           HAVE_FC_PRIVATE
 
         HAVE_FC_PROTECTED           HAVE_FC_SHIFTLR         HAVE_FC_STREAM_IO
 
            HAVE_FC_SYSTEM          HAVE_FORTRAN2003                 HAVE_HDF5
 
        HAVE_LIBPAW_ABINIT      HAVE_LIBTETRA_ABINIT                HAVE_LIBXC
 
                  HAVE_MPI                 HAVE_MPI2       HAVE_MPI_IALLGATHER
 
       HAVE_MPI_IALLREDUCE        HAVE_MPI_IALLTOALL       HAVE_MPI_IALLTOALLV
 
           HAVE_MPI_IBCAST         HAVE_MPI_IGATHERV        HAVE_MPI_INTEGER16
 
               HAVE_MPI_IO HAVE_MPI_TYPE_CREATE_S...               HAVE_NETCDF
 
       HAVE_NETCDF_FORTRAN                HAVE_NUMPY             HAVE_OS_LINUX
 
         HAVE_TIMER_ABINIT                                                      
 ++++++++++++++++++++++++++++++++++++++++++++++++++++++++++++++++++++++++++++++

- input  file    -> casa
- output file    -> casa.abo
- root for input  files -> i
- root for output files -> o

-instrng: 98 lines of input have been read from file casa

 For atom type 1, psp file is Mo.psp8
 For atom type 2, psp file is S.psp8
  read the values zionpsp= 14.0 , pspcod=   8 , lmax=   2
  read the values zionpsp=  6.0 , pspcod=   8 , lmax=   2

 inpspheads: deduce mpsang = 3, n1xccc = 2501.

======================================================= 
 invars1m : enter jdtset= 1

 symlatt: the Bravais lattice is hP (primitive hexagonal)
  xcart  is defined in input file (possibly in Angstrom)
 ingeo: takes atomic coordinates from input array xcart

--- !COMMENT
src_file: m_ingeo.F90
src_line: 900
message: |
    The tolerance on symmetries =   1.000E-05 is bigger than 1.0e-8.
    In order to avoid spurious effects, the atomic coordinates have been
    symmetrized before storing them in the dataset internal variable.
    So, do not be surprised by the fact that your input variables (xcart, xred, ...)
    do not correspond exactly to the ones echoed by ABINIT, the latter being used to do the calculations.
    This is not a problem per se.
    Still, in order to avoid this symmetrization (e.g. for specific debugging/development), decrease tolsym to 1.0e-8 or lower,
    or (much preferred) use input primitive vectors that are accurate to better than 1.0e-8.
    This message will only be printed once, even if there are other datasets where tolsym is bigger than 1.0e-8.
...


 symlatt: the Bravais lattice is hP (primitive hexagonal)

 symlatt: the Bravais lattice is hP (primitive hexagonal)

--- !COMMENT
src_file: m_symfind.F90
src_line: 1020
message: |
    The Bravais lattice determined only from the primitive
    vectors, bravais(1)=  6, is more symmetric
    than the real one, iholohedry=  3, obtained by taking into
    account the atomic positions. Start deforming the primitive vector set.
...


 symlatt: the Bravais lattice is oC (one-face-centered orthorhombic)
 symspgr: spgroup=  38  Am m 2   (=C2v^14)
 inkpts: Sum of 1 k point weights is    1.000000

======================================================= 
 invars1m : enter jdtset= 2

 symlatt: the Bravais lattice is hP (primitive hexagonal)
  xred   is defined in input file
 ingeo: takes atomic coordinates from input array xred

 symlatt: the Bravais lattice is hP (primitive hexagonal)

 symlatt: the Bravais lattice is hP (primitive hexagonal)
 symspgr: spgroup= 191  P6/m m m   (=D6h^1)
 symspgr: optical characteristics = uniaxial
 Optical axis (in reduced coordinates, real space ) :   0   0   1
 inkpts: Sum of 1 k point weights is    1.000000

======================================================= 
 invars1m : enter jdtset= 3

 symlatt: the Bravais lattice is hP (primitive hexagonal)
  xred   is defined in input file
 ingeo: takes atomic coordinates from input array xred

 symlatt: the Bravais lattice is hP (primitive hexagonal)

 symlatt: the Bravais lattice is hP (primitive hexagonal)
 symspgr: spgroup= 183  P6 m m   (=C6v^1)
 symspgr: optical characteristics = uniaxial
 Optical axis (in reduced coordinates, real space ) :   0   0   1
 inkpts: Sum of 1 k point weights is    1.000000
 inkpts: Sum of 1 k point weights is    1.000000
 inkpts: Sum of 1 k point weights is    1.000000
 initocc_chkneu: initialized the occupation numbers for occopt= 7
    spin up   values:
 inkpts: Sum of 1 k point weights is    1.000000
 initocc_chkneu: initialized the occupation numbers for occopt= 7
    spin up   values:
 For input ecut=  2.000000E+01 best grid ngfft=      27      27     135
       max ecut=  2.037893E+01

 ==== FFT mesh ====
  FFT mesh divisions ........................    27   27  135
  Augmented FFT divisions ...................    27   27  135
  FFT algorithm .............................   112
  FFT cache size ............................    16
 getmpw: optimal value of mpw= 2194
 For input ecut=  2.000000E+01 best grid ngfft=      27      27     135
       max ecut=  2.037893E+01

 ==== FFT mesh ====
  FFT mesh divisions ........................    27   27  135
  Augmented FFT divisions ...................    27   27  135
  FFT algorithm .............................   112
  FFT cache size ............................    16
 getmpw: optimal value of mpw= 2194
 For input ecut=  2.000000E+01 best grid ngfft=      27      27     135
       max ecut=  2.037893E+01

 ==== FFT mesh ====
  FFT mesh divisions ........................    27   27  135
  Augmented FFT divisions ...................    27   27  135
  FFT algorithm .............................   112
  FFT cache size ............................    16
 getmpw: optimal value of mpw= 2194

 DATASET    1 : space group Am m 2 (# 38); Bravais oC (1-face-center ortho.)

 getdim_nloc : deduce lmnmax  =  18, lnmax  =   6,
                      lmnmaxso=  18, lnmaxso=   6.
memory: analysis of memory needs
================================================================================
 Values of the parameters that define the memory need for DATASET  1.
     intxc =       0    ionmov =       2      iscf =       7    lmnmax =       6
     lnmax =       6     mgfft =     135  mpssoang =       3    mqgrid =    6638
     natom =       3  nloc_mem =       1    nspden =       1   nspinor =       1
    nsppol =       1      nsym =       4    n1xccc =    2501    ntypat =       2
    occopt =       1   xclevel =       2
-    mband =          20        mffmem =           1         mkmem =           1
       mpw =        2194          nfft =       98415          nkpt =           1
================================================================================
P This job should need less than                      34.260 Mbytes of memory.
  Rough estimation (10% accuracy) of disk space for files :
_ WF disk file :      0.672 Mbytes ; DEN or POT disk file :      0.753 Mbytes.
================================================================================

 Biggest array : f_fftgr(disk), with     12.0155 MBytes.
 memana : allocated an array of     12.016 Mbytes, for testing purposes.
 memana: allocated      34.260Mbytes, for testing purposes. 
 The job will continue.

 DATASET    2 : space group P6/m m m (#191); Bravais hP (primitive hexag.)

 getdim_nloc : deduce lmnmax  =  18, lnmax  =   6,
                      lmnmaxso=  18, lnmaxso=   6.
memory: analysis of memory needs
================================================================================
 Values of the parameters that define the memory need for DATASET  2.
     intxc =       0    ionmov =       0      iscf =       7    lmnmax =       6
     lnmax =       6     mgfft =     135  mpssoang =       3    mqgrid =    6638
     natom =       1  nloc_mem =       1    nspden =       2   nspinor =       1
    nsppol =       2      nsym =      24    n1xccc =    2501    ntypat =       2
    occopt =       7   xclevel =       2
-    mband =          10        mffmem =           1         mkmem =           1
       mpw =        2194          nfft =       98415          nkpt =           1
================================================================================
P This job should need less than                      55.984 Mbytes of memory.
  Rough estimation (10% accuracy) of disk space for files :
_ WF disk file :      0.672 Mbytes ; DEN or POT disk file :      1.504 Mbytes.
================================================================================

 Biggest array : f_fftgr(disk), with     24.0291 MBytes.
 memana : allocated an array of     24.029 Mbytes, for testing purposes.
 memana: allocated      55.984Mbytes, for testing purposes. 
 The job will continue.

 DATASET    3 : space group P6 m m (#183); Bravais hP (primitive hexag.)

 getdim_nloc : deduce lmnmax  =  18, lnmax  =   6,
                      lmnmaxso=  18, lnmaxso=   6.
memory: analysis of memory needs
================================================================================
 Values of the parameters that define the memory need for DATASET  3.
     intxc =       0    ionmov =       0      iscf =       7    lmnmax =       6
     lnmax =       6     mgfft =     135  mpssoang =       3    mqgrid =    6638
     natom =       2  nloc_mem =       1    nspden =       2   nspinor =       1
    nsppol =       2      nsym =      12    n1xccc =    2501    ntypat =       2
    occopt =       7   xclevel =       2
-    mband =          10        mffmem =           1         mkmem =           1
       mpw =        2194          nfft =       98415          nkpt =           1
================================================================================
P This job should need less than                      55.998 Mbytes of memory.
  Rough estimation (10% accuracy) of disk space for files :
_ WF disk file :      0.672 Mbytes ; DEN or POT disk file :      1.504 Mbytes.
================================================================================

 Biggest array : f_fftgr(disk), with     24.0291 MBytes.
 memana : allocated an array of     24.029 Mbytes, for testing purposes.
 memana: allocated      55.998Mbytes, for testing purposes. 
 The job will continue.
--------------------------------------------------------------------------------
------------- Echo of variables that govern the present computation ------------
--------------------------------------------------------------------------------
-
- outvars: echo of selected default values                                      
-   iomode0 =  0 , fftalg0 =112 , wfoptalg0 =  0
-
- outvars: echo of global parameters not present in the input file              
-  max_nthreads =    0
-
 -outvars: echo values of preprocessed input variables --------
 
 These variables are accessible in NetCDF format (o_OUT.nc)

            acell      6.0300000000E+00  6.0300000000E+00  3.2970000000E+01 Bohr
              amu      9.59400000E+01  3.20660000E+01
        bs_loband1          0
        bs_loband2          0       0
        bs_loband3          0       0
           diemac      2.00000000E+00
             ecut      2.00000000E+01 Hartree
-          fftalg         112
           ionmov1          2
           ionmov2          0
           ionmov3          0
           istwfk        2
              ixc          11
           jdtset        1    2    3
           kptopt           0
P           mkmem           1
            natom1          3
            natom2          1
            natom3          2
            nband1         20
            nband2         10
            nband3         10
           ndtset           3
            ngfft          27      27     135
             nkpt           1
           nspden1          1
           nspden2          2
           nspden3          2
           nsppol1          1
           nsppol2          2
           nsppol3          2
            nstep          20
             nsym1          4
             nsym2         24
             nsym3         12
            ntime1         20
            ntime2          1
            ntime3          1
           ntypat           2
              occ1     2.000000  2.000000  2.000000  2.000000  2.000000  2.000000
                       2.000000  2.000000  2.000000  2.000000  2.000000  2.000000
                       2.000000  0.000000  0.000000  0.000000  0.000000  0.000000
                       0.000000  0.000000
              occ2     1.000000  1.000000  1.000000  1.000000  1.000000  1.000000
                       1.000000  0.000000  0.000000  0.000000
                       1.000000  1.000000  1.000000  1.000000  1.000000  1.000000
                       1.000000  0.000000  0.000000  0.000000
              occ3     1.000000  1.000000  1.000000  1.000000  1.000000  1.000000
                       1.000000  1.000000  1.000000  1.000000
                       1.000000  1.000000  1.000000  1.000000  1.000000  1.000000
                       1.000000  1.000000  1.000000  1.000000
           occopt1          1
           occopt2          7
           occopt3          7
        optforces1          1
        optforces2          2
        optforces3          2
            rprim      8.6602540378E-01 -5.0000000000E-01  0.0000000000E+00
                       8.6602540378E-01  5.0000000000E-01  0.0000000000E+00
                       0.0000000000E+00  0.0000000000E+00  1.0000000000E+00
          spgroup1         38
          spgroup2        191
          spgroup3        183
           spinat2     0.0000000000E+00  0.0000000000E+00  1.0000000000E+00
           spinat3     0.0000000000E+00  0.0000000000E+00  1.0000000000E+00
                       0.0000000000E+00  0.0000000000E+00  1.0000000000E+00
           symafm1       1    1    1    1
           symafm2       1    1    1    1    1    1    1    1    1    1
                         1    1    1    1    1    1    1    1    1    1
                         1    1    1    1
           symafm3       1    1    1    1    1    1    1    1    1    1
                         1    1
           symrel1     1  0  0   0  1  0   0  0  1       0  1  0   1  0  0   0  0 -1
                       1  0  0   0  1  0   0  0 -1       0  1  0   1  0  0   0  0  1
           symrel2     1  0  0   0  1  0   0  0  1      -1  0  0   0 -1  0   0  0 -1
                      -1  1  0   0  1  0   0  0  1       1 -1  0   0 -1  0   0  0 -1
                       0  1  0  -1  1  0   0  0  1       0 -1  0   1 -1  0   0  0 -1
                      -1  0  0  -1  1  0   0  0  1       1  0  0   1 -1  0   0  0 -1
                      -1  1  0  -1  0  0   0  0  1       1 -1  0   1  0  0   0  0 -1
                       0 -1  0  -1  0  0   0  0  1       0  1  0   1  0  0   0  0 -1
                      -1  0  0   0 -1  0   0  0  1       1  0  0   0  1  0   0  0 -1
                       1 -1  0   0 -1  0   0  0  1      -1  1  0   0  1  0   0  0 -1
                       0 -1  0   1 -1  0   0  0  1       0  1  0  -1  1  0   0  0 -1
                       1  0  0   1 -1  0   0  0  1      -1  0  0  -1  1  0   0  0 -1
                       1 -1  0   1  0  0   0  0  1      -1  1  0  -1  0  0   0  0 -1
                       0  1  0   1  0  0   0  0  1       0 -1  0  -1  0  0   0  0 -1
           symrel3     1  0  0   0  1  0   0  0  1      -1  1  0   0  1  0   0  0  1
                       0  1  0  -1  1  0   0  0  1      -1  0  0  -1  1  0   0  0  1
                      -1  1  0  -1  0  0   0  0  1       0 -1  0  -1  0  0   0  0  1
                      -1  0  0   0 -1  0   0  0  1       1 -1  0   0 -1  0   0  0  1
                       0 -1  0   1 -1  0   0  0  1       1  0  0   1 -1  0   0  0  1
                       1 -1  0   1  0  0   0  0  1       0  1  0   1  0  0   0  0  1
            tnons1     0.0000000  0.0000000  0.0000000     0.0000000  0.0000000  0.0000000
                       0.0000000  0.0000000  0.0000000     0.0000000  0.0000000  0.0000000
            tnons2     0.0000000  0.0000000  0.0000000     0.2000000  0.0000000  0.2000000
                       0.2000000 -0.1000000  0.0000000     0.0000000  0.1000000  0.2000000
                       0.1000000 -0.1000000  0.0000000     0.1000000  0.1000000  0.2000000
                       0.2000000  0.0000000  0.0000000     0.0000000  0.0000000  0.2000000
                       0.2000000 -0.1000000  0.0000000     0.0000000  0.1000000  0.2000000
                       0.1000000  0.1000000  0.0000000     0.1000000 -0.1000000  0.2000000
                       0.2000000  0.0000000  0.0000000     0.0000000  0.0000000  0.2000000
                       0.0000000  0.1000000  0.0000000     0.2000000 -0.1000000  0.2000000
                       0.1000000  0.1000000  0.0000000     0.1000000 -0.1000000  0.2000000
                       0.0000000  0.0000000  0.0000000     0.2000000  0.0000000  0.2000000
                       0.0000000  0.1000000  0.0000000     0.2000000 -0.1000000  0.2000000
                       0.1000000 -0.1000000  0.0000000     0.1000000  0.1000000  0.2000000
            tnons3     0.0000000  0.0000000  0.0000000     0.5000000 -0.2500000  0.0000000
                       0.5000000 -0.2500000  0.0000000    -0.2500000  0.0000000  0.0000000
                      -0.2500000  0.0000000  0.0000000     0.5000000  0.5000000  0.0000000
                       0.5000000  0.5000000  0.0000000     0.0000000 -0.2500000  0.0000000
                       0.0000000 -0.2500000  0.0000000    -0.2500000  0.5000000  0.0000000
                      -0.2500000  0.5000000  0.0000000     0.0000000  0.0000000  0.0000000
           toldfe1     0.00000000E+00 Hartree
           toldfe2     1.00000000E-06 Hartree
           toldfe3     1.00000000E-06 Hartree
           toldff1     5.00000000E-05
           toldff2     0.00000000E+00
           toldff3     0.00000000E+00
           tolmxf1     5.00000000E-04
           tolmxf2     5.00000000E-05
           tolmxf3     5.00000000E-05
            typat1     1  2  2
            typat2     1
            typat3     1  2
           xangst1     0.0000000000E+00  0.0000000000E+00  0.0000000000E+00
                       1.8415366859E+00  0.0000000000E+00 -7.6730695246E-01
                       1.8415366859E+00  0.0000000000E+00  7.6730695246E-01
           xangst2     2.7634338616E-01 -1.5954692839E-01  1.7446972567E+00
           xangst3     1.3817169308E+00  0.0000000000E+00 -7.6730695246E-01
                       1.3817169308E+00  0.0000000000E+00  7.6730695246E-01
            xcart1     0.0000000000E+00  0.0000000000E+00  0.0000000000E+00
                       3.4800000000E+00  0.0000000000E+00 -1.4500000000E+00
                       3.4800000000E+00  0.0000000000E+00  1.4500000000E+00
            xcart2     5.2221331848E-01 -3.0150000000E-01  3.2970000000E+00
            xcart3     2.6110665924E+00  0.0000000000E+00 -1.4500000000E+00
                       2.6110665924E+00  0.0000000000E+00  1.4500000000E+00
             xred1     0.0000000000E+00  0.0000000000E+00  0.0000000000E+00
                       3.3319717028E-01  3.3319717028E-01 -4.3979375190E-02
                       3.3319717028E-01  3.3319717028E-01  4.3979375190E-02
             xred2     1.0000000000E-01  6.9388939039E-18  1.0000000000E-01
             xred3     2.5000000000E-01  2.5000000000E-01 -4.3979375190E-02
                       2.5000000000E-01  2.5000000000E-01  4.3979375190E-02
            znucl       42.00000   16.00000

================================================================================

 chkinp: Checking input parameters for consistency, jdtset=   1.

 chkinp: Checking input parameters for consistency, jdtset=   2.

 chkinp: Checking input parameters for consistency, jdtset=   3.
 DATA TYPE INFORMATION: 
 REAL:      Data type name: REAL(DP) 
            Kind value:      8
            Precision:      15
            Smallest nonnegligible quantity relative to 1: 0.22204460E-015
            Smallest positive number:                      0.22250739E-307
            Largest representable number:                  0.17976931E+309
 INTEGER:   Data type name: INTEGER(default) 
            Kind value: 4
            Bit size:   32
            Largest representable number: 2147483647
 LOGICAL:   Data type name: LOGICAL 
            Kind value: 4
 CHARACTER: Data type name: CHARACTER             Kind value: 1

  ==== OpenMP parallelism is OFF ====
 
  ==== Using MPI-2 specifications ==== 
  MPI-IO support is ON
  xmpi_tag_ub ................   2147483647
  xmpi_bsize_ch ..............            1
  xmpi_bsize_int .............            4
  xmpi_bsize_sp ..............            4
  xmpi_bsize_dp ..............            8
  xmpi_bsize_spc .............            8
  xmpi_bsize_dpc .............           16
  xmpio_bsize_frm ............            4
  xmpi_address_kind ..........            8
  xmpi_offset_kind ...........            8
  MPI_WTICK ..................    1.0000000000000001E-009

================================================================================
== DATASET  1 ==================================================================
-   mpi_nproc: 1, omp_nthreads: -1 (-1 if OMP is not activated)


--- !COMMENT
src_file: m_xgScalapack.F90
src_line: 236
message: |
    xgScalapack in auto mode
...


 getdim_nloc : deduce lmnmax  =  18, lnmax  =   6,
                      lmnmaxso=  18, lnmaxso=   6.
 Exchange-correlation functional for the present dataset will be:
  GGA: Perdew-Burke-Ernzerhof functional - ixc=11
 Citation for XC functional:
  J.P.Perdew, K.Burke, M.Ernzerhof, PRL 77, 3865 (1996)

 Unit cell volume ucvol=  1.0382076E+03 bohr^3
 Angles (23,13,12)=  9.00000000E+01  9.00000000E+01  6.00000000E+01 degrees

 getcut: wavevector=  0.0000  0.0000  0.0000  ngfft=  27  27 135
         ecut(hartree)=     20.000   => boxcut(ratio)=   2.01886
- pspini: atom type   1  psp file is Mo.psp8
- pspatm: opening atomic psp file    Mo.psp8
- Mo    ONCVPSP-3.2.3.1  r_core=   1.45541   1.45541   1.35488
- 42.00000  14.00000    170510                znucl, zion, pspdat
    8   11    2    4       600   0.00000      pspcod,pspxc,lmax,lloc,mmax,r2well
    5.99000000000000    3.00000000000000    0.00000000000000   rchrg,fchrg,qchrg
     nproj     2     2     2
     extension_switch     1
  valence charge integrates to:    13.910619929066559     
  pspatm : epsatm=   15.95693586
         --- l  ekb(1:nproj) -->
             0   13.833287    1.350687
             1    8.015347    1.134034
             2    2.765699    0.969071
 pspatm: atomic psp has been read  and splines computed

- pspini: atom type   2  psp file is S.psp8
- pspatm: opening atomic psp file    S.psp8
- S     ONCVPSP-3.2.3.1  r_core=   1.45376   1.45376   1.61851
- 16.00000   6.00000    170504                znucl, zion, pspdat
    8   11    2    4       600   0.00000      pspcod,pspxc,lmax,lloc,mmax,r2well
    5.99000000000000    6.00000000000000    0.00000000000000   rchrg,fchrg,qchrg
     nproj     2     2     2
     extension_switch     1
  valence charge integrates to:    5.9895206683396385     
  pspatm : epsatm=    9.01821879
         --- l  ekb(1:nproj) -->
             0    6.763951    0.574108
             1    3.227080    0.887329
             2   -3.547662   -0.986524
 pspatm: atomic psp has been read  and splines computed

   8.83827710E+02                                ecore*ucvol(ha*bohr**3)
 ==== Info on pseudopotentials ====
  Norm-conserving pseudopotentials
  Number of pseudopotentials ..    2
  Number of types of atoms   ..    2
  Scalar calculation (no spin-orbit term)
  Nonlocal part applied using Legendre polynomials
  Max number of non-local projectors over l and type   2
  Highest angular momentum +1 .......   3
  Max number of (l,n)   components ..   6
  Max number of (l,m,n) components ..   6

 Pseudo-Core Charge Info: 
   Number of radial points for pseudo-core charge .. 2501
   XC core-correction treatment (optnlxccc) ........    1
   Radius for pseudo-core charge for each type ..... 

  - Atom type    1 has pseudo-core radius ..  5.9900
  - Atom type    2 has pseudo-core radius ..  5.9900

 Info on the Q-grid used for form factors in spline form: 
   Number of q-points for radial functions ffspl ..   6638
   Number of q-points for vlspl ...................   6638
   vloc is computed in Reciprocal Space
   model core charge treated in real-space

  XC functional for type 1 is 11
  Pseudo valence available: yes
  XC functional for type 2 is 11
  Pseudo valence available: yes

 symatm: atom number 1 is reached starting at atom
   1  1  1  1
 symatm: atom number 2 is reached starting at atom
   2  3  3  2
 symatm: atom number 3 is reached starting at atom
   3  2  2  3
 wfconv:    20 bands initialized randomly with npw=  2194, for ikpt=     1
_setup2: Arith. and geom. avg. npw (full set) are    4387.000    4387.000
 initro: for itypat=  1, take pseudo charge density from pp file
 initro: for itypat=  2, take pseudo charge density from pp file

================================================================================

=== [ionmov= 2] Broyden-Fletcher-Goldfard-Shanno method (forces)            
================================================================================

--- Iteration: ( 1/20) Internal Cycle: (1/1)
--------------------------------------------------------------------------------

 Cartesian coordinates (xcart) [bohr]
  0.00000000000000E+00  0.00000000000000E+00  0.00000000000000E+00
  3.48000000000000E+00  0.00000000000000E+00 -1.45000000000000E+00
  3.48000000000000E+00  0.00000000000000E+00  1.45000000000000E+00
 Reduced coordinates (xred)
  0.00000000000000E+00  0.00000000000000E+00  0.00000000000000E+00
  3.33197170278590E-01  3.33197170278590E-01 -4.39793751895663E-02
  3.33197170278590E-01  3.33197170278590E-01  4.39793751895663E-02

---SELF-CONSISTENT-FIELD CONVERGENCE--------------------------------------------
 m_mover, before scfcv_run : itimes(1:2)=   1   1

 getcut: wavevector=  0.0000  0.0000  0.0000  ngfft=  27  27 135
         ecut(hartree)=     20.000   => boxcut(ratio)=   2.01886

 1/G**2 cut-off applied in the following step : cutoff-mode = CRYSTAL

 1/G**2 cut-off applied in the following step : cutoff-mode = CRYSTAL

 1/G**2 cut-off applied in the following step : cutoff-mode = CRYSTAL

--- !WARNING
src_file: m_drivexc.F90
src_line: 711
message: |
    Density went too small (lower than xc_denpos) at 14090 points
    and was set to xc_denpos =   1.00E-14. Lowest was  -0.32E-05.
    This might be due to (1) too low boxcut or (2) too low ecut for
     pseudopotential core charge, or (3) too low ecut for estimated initial density.
     Possible workarounds : increase ecut, or define the input variable densty,
     with a value larger than the guess for the decay length, or initialize your,
     density with a preliminary LDA or GGA-PBE if you are using a more exotic xc functional.
...


 ITER STEP NUMBER     1
 Max number of non-self-consistent loops: 2
 Total charge density [el/Bohr^3]
      Maximum=    9.4808E-01  at reduced coord.    0.9630    0.9630    0.9778
      Minimum=    1.9041E-05  at reduced coord.    0.7037    0.2222    0.4963
   Integrated=    2.6000E+01

 1/G**2 cut-off applied in the following step : cutoff-mode = CRYSTAL
 ETOT  1  -91.187590807829    -9.119E+01 3.057E-02 2.189E+03 1.445E-01 1.445E-01
 scprqt: <Vxc>= -1.5890153E-01 hartree

 Simple mixing update:
  residual square of the potential:    818.93727039008900
{SCF_istep: 1 , Vnl|psi>: 213 , wall_time: '  0.75 [s] '} <<< TIME

 ITER STEP NUMBER     2
 Max number of non-self-consistent loops: 2
 Total charge density [el/Bohr^3]
      Maximum=    9.2823E-01  at reduced coord.    0.1481    0.9259    0.9926
      Minimum=    1.1611E-04  at reduced coord.    0.7778    0.2222    0.4963
   Integrated=    2.6000E+01
 ETOT  2  -88.551824052347     2.636E+00 2.550E-03 9.920E+04 1.761E+00 1.877E+00
 scprqt: <Vxc>= -2.2446310E-01 hartree

 Pulay update with  1 previous iterations:
 mixing of old trial potential: alpha(m:m-4)=  0.130      0.870
{SCF_istep: 2 , Vnl|psi>: 213 , wall_time: '  0.34 [s] '} <<< TIME

 ITER STEP NUMBER     3
 Total charge density [el/Bohr^3]
      Maximum=    1.0484E+00  at reduced coord.    0.0741    0.9259    0.9778
      Minimum=    6.2267E-08  at reduced coord.    0.8889    0.5556    0.4963
   Integrated=    2.6000E+01
 ETOT  3  -91.269780078391    -2.718E+00 7.497E-03 1.292E+03 8.841E-01 9.925E-01
 scprqt: <Vxc>= -1.3772266E-01 hartree

 Pulay update with  2 previous iterations:
 mixing of old trial potential: alpha(m:m-4)=  0.409      0.106      0.485
{SCF_istep: 3 , Vnl|psi>: 113 , wall_time: '  0.22 [s] '} <<< TIME

 ITER STEP NUMBER     4
 Total charge density [el/Bohr^3]
      Maximum=    9.1134E-01  at reduced coord.    0.9630    0.9630    0.9778
      Minimum=    9.5584E-08  at reduced coord.    0.9630    0.3704    0.4815
   Integrated=    2.6000E+01
 ETOT  4  -91.335821625205    -6.604E-02 3.876E-03 2.427E+03 7.734E-01 7.765E-01
 scprqt: <Vxc>= -1.7024122E-01 hartree

 Pulay update with  3 previous iterations:
 mixing of old trial potential: alpha(m:m-4)=  0.367      0.356      0.139E-01  0.263
{SCF_istep: 4 , Vnl|psi>: 113 , wall_time: '  0.19 [s] '} <<< TIME

 ITER STEP NUMBER     5
 Total charge density [el/Bohr^3]
      Maximum=    1.0016E+00  at reduced coord.    0.9630    0.9630    0.9778
      Minimum=    1.7948E-08  at reduced coord.    0.2963    0.0000    0.4296
   Integrated=    2.6000E+01
 ETOT  5  -91.431478809821    -9.566E-02 6.199E-04 1.257E+03 4.787E-01 6.394E-01
 scprqt: <Vxc>= -1.3333120E-01 hartree

 Pulay update with  4 previous iterations:
 mixing of old trial potential: alpha(m:m-4)=  0.128      0.327      0.297      0.233E-01  0.224
{SCF_istep: 5 , Vnl|psi>: 113 , wall_time: '  0.19 [s] '} <<< TIME

 ITER STEP NUMBER     6
 Total charge density [el/Bohr^3]
      Maximum=    9.9640E-01  at reduced coord.    0.0741    0.9259    0.9778
      Minimum=    0.0000E+00  at reduced coord.    0.4074    0.1852    0.3926
   Integrated=    2.6000E+01
 ETOT  6  -91.438417917301    -6.939E-03 1.620E-03 1.192E+03 1.199E+00 6.287E-01
 scprqt: <Vxc>= -1.3325147E-01 hartree

 Pulay update with  5 previous iterations:
 mixing of old trial potential: alpha(m:m-4)=  0.150      0.124      0.294      0.222      0.307E-01
{SCF_istep: 6 , Vnl|psi>: 113 , wall_time: '  0.20 [s] '} <<< TIME

 ITER STEP NUMBER     7
 Total charge density [el/Bohr^3]
      Maximum=    9.9313E-01  at reduced coord.    0.9630    0.9630    0.9778
      Minimum=    0.0000E+00  at reduced coord.    0.7407    0.4815    0.4667
   Integrated=    2.6000E+01
 ETOT  7  -91.445710898373    -7.293E-03 2.728E-04 1.094E+03 1.169E+00 6.335E-01
 scprqt: <Vxc>= -1.3576473E-01 hartree

 Pulay update with  6 previous iterations:
 mixing of old trial potential: alpha(m:m-4)=  0.310      0.151     -0.120      0.269      0.193
{SCF_istep: 7 , Vnl|psi>: 113 , wall_time: '  0.21 [s] '} <<< TIME

 ITER STEP NUMBER     8
 Total charge density [el/Bohr^3]
      Maximum=    9.4445E-01  at reduced coord.    0.0370    0.9259    0.9778
      Minimum=    2.7055E-08  at reduced coord.    0.6296    0.1111    0.4889
   Integrated=    2.6000E+01
 ETOT  8  -91.417773390926     2.794E-02 5.713E-06 2.318E+03 5.766E-01 8.245E-01
 scprqt: <Vxc>= -1.7149628E-01 hartree

 Pulay update with  7 previous iterations:
 mixing of old trial potential: alpha(m:m-4)=  0.330      0.282      0.147     -0.816E-01  0.921E-01
{SCF_istep: 8 , Vnl|psi>: 113 , wall_time: '  0.20 [s] '} <<< TIME

 ITER STEP NUMBER     9
 Total charge density [el/Bohr^3]
      Maximum=    9.9544E-01  at reduced coord.    0.0741    0.9259    0.9778
      Minimum=    0.0000E+00  at reduced coord.    0.4074    0.1852    0.3926
   Integrated=    2.6000E+01
 ETOT  9  -91.442373628200    -2.460E-02 1.234E-05 1.158E+03 5.814E-01 6.406E-01
 scprqt: <Vxc>= -1.3314211E-01 hartree

 Pulay update with  7 previous iterations:
 mixing of old trial potential: alpha(m:m-4)=   1.12      0.472      0.480     -0.771     -0.205
{SCF_istep: 9 , Vnl|psi>: 113 , wall_time: '  0.20 [s] '} <<< TIME

 ITER STEP NUMBER    10
 Total charge density [el/Bohr^3]
      Maximum=    1.0046E+00  at reduced coord.    0.9630    0.9630    0.9778
      Minimum=    1.3965E-08  at reduced coord.    0.8889    0.4074    0.4815
   Integrated=    2.6000E+01
 ETOT 10  -91.454412827780    -1.204E-02 5.399E-06 5.938E+02 1.067E+00 6.638E-01
 scprqt: <Vxc>= -1.4448700E-01 hartree

 Pulay update with  7 previous iterations:
 mixing of old trial potential: alpha(m:m-4)=  0.673E-01  0.991      0.458      0.466     -0.642
{SCF_istep: 10 , Vnl|psi>: 113 , wall_time: '  0.20 [s] '} <<< TIME

 ITER STEP NUMBER    11
 Total charge density [el/Bohr^3]
      Maximum=    1.0043E+00  at reduced coord.    0.9630    0.9630    0.9778
      Minimum=    1.3967E-08  at reduced coord.    0.8889    0.4074    0.4815
   Integrated=    2.6000E+01
 ETOT 11  -91.456175868600    -1.763E-03 5.260E-07 5.614E+02 3.132E-03 6.651E-01
 scprqt: <Vxc>= -1.4497196E-01 hartree

 Pulay update with  7 previous iterations:
 mixing of old trial potential: alpha(m:m-4)=  0.120     -0.451E-01  0.947      0.429      0.446
{SCF_istep: 11 , Vnl|psi>: 113 , wall_time: '  0.19 [s] '} <<< TIME

 ITER STEP NUMBER    12
 Total charge density [el/Bohr^3]
      Maximum=    1.0029E+00  at reduced coord.    0.9630    0.9630    0.9778
      Minimum=    1.3928E-08  at reduced coord.    0.2593    0.1111    0.4889
   Integrated=    2.6000E+01
 ETOT 12  -91.456413248459    -2.374E-04 1.078E-06 5.624E+02 6.216E-03 6.589E-01
 scprqt: <Vxc>= -1.4499601E-01 hartree

 Pulay update with  7 previous iterations:
 mixing of old trial potential: alpha(m:m-4)= -0.171      0.155      0.785E-01  0.918      0.392
{SCF_istep: 12 , Vnl|psi>: 113 , wall_time: '  0.21 [s] '} <<< TIME

 ITER STEP NUMBER    13
 Total charge density [el/Bohr^3]
      Maximum=    1.0062E+00  at reduced coord.    0.9630    0.9630    0.9778
      Minimum=    1.1535E-08  at reduced coord.    0.7778    0.7407    0.4667
   Integrated=    2.6000E+01
 ETOT 13  -91.444606779400     1.181E-02 1.571E-06 8.480E+02 4.384E-02 6.498E-01
 scprqt: <Vxc>= -1.4078680E-01 hartree

 Pulay update with  7 previous iterations:
 mixing of old trial potential: alpha(m:m-4)=  0.208E-01 -0.185      0.369E-01  0.100       1.05
{SCF_istep: 13 , Vnl|psi>: 113 , wall_time: '  0.19 [s] '} <<< TIME

 ITER STEP NUMBER    14
 Total charge density [el/Bohr^3]
      Maximum=    1.0050E+00  at reduced coord.    0.9630    0.9630    0.9778
      Minimum=    0.0000E+00  at reduced coord.    0.7778    0.7407    0.4667
   Integrated=    2.6000E+01
 ETOT 14  -91.440826665371     3.780E-03 5.450E-07 9.765E+02 1.388E-02 6.419E-01
 scprqt: <Vxc>= -1.3875848E-01 hartree

 Pulay update with  7 previous iterations:
 mixing of old trial potential: alpha(m:m-4)=  0.168     -0.420E-01 -0.367      0.903     -0.470
{SCF_istep: 14 , Vnl|psi>: 113 , wall_time: '  0.19 [s] '} <<< TIME

 ITER STEP NUMBER    15
 Total charge density [el/Bohr^3]
      Maximum=    9.9219E-01  at reduced coord.    0.0370    0.0370    0.9778
      Minimum=    1.3998E-08  at reduced coord.    0.8889    0.7037    0.4815
   Integrated=    2.6000E+01
 ETOT 15  -91.482241064600    -4.141E-02 4.930E-06 4.741E+02 5.855E-02 6.622E-01
 scprqt: <Vxc>= -1.4578112E-01 hartree

 Pulay update with  7 previous iterations:
 mixing of old trial potential: alpha(m:m-4)=  0.183      0.121     -0.850E-01 -0.615      0.845
{SCF_istep: 15 , Vnl|psi>: 112 , wall_time: '  0.19 [s] '} <<< TIME

 ITER STEP NUMBER    16
 Total charge density [el/Bohr^3]
      Maximum=    9.9595E-01  at reduced coord.    0.0741    0.9259    0.9778
      Minimum=    0.0000E+00  at reduced coord.    0.4074    0.1852    0.3926
   Integrated=    2.6000E+01
 ETOT 16  -91.443084087511     3.916E-02 5.042E-06 1.122E+03 1.067E+00 6.316E-01
 scprqt: <Vxc>= -1.3335916E-01 hartree

 Pulay update with  7 previous iterations:
 mixing of old trial potential: alpha(m:m-4)=  0.723      0.944      -1.92     -0.339     -0.638
{SCF_istep: 16 , Vnl|psi>: 113 , wall_time: '  0.20 [s] '} <<< TIME

 ITER STEP NUMBER    17
 Total charge density [el/Bohr^3]
      Maximum=    9.5760E-01  at reduced coord.    0.0370    0.0370    0.9778
      Minimum=    2.7614E-08  at reduced coord.    0.5926    0.5556    0.4963
   Integrated=    2.6000E+01
 ETOT 17  -91.393949929832     4.913E-02 1.271E-04 3.338E+03 4.568E-01 8.441E-01
 scprqt: <Vxc>= -1.7502840E-01 hartree

 Pulay update with  7 previous iterations:
 mixing of old trial potential: alpha(m:m-4)=  0.256      0.266      0.295     -0.350     -0.195
{SCF_istep: 17 , Vnl|psi>: 113 , wall_time: '  0.21 [s] '} <<< TIME

 ITER STEP NUMBER    18
 Total charge density [el/Bohr^3]
      Maximum=    9.4490E-01  at reduced coord.    0.0370    0.0370    0.9778
      Minimum=    2.7445E-08  at reduced coord.    0.5926    0.5556    0.4963
   Integrated=    2.6000E+01
 ETOT 18  -91.410815204172    -1.687E-02 1.013E-04 2.548E+03 9.650E-02 8.297E-01
 scprqt: <Vxc>= -1.7232318E-01 hartree

 Pulay update with  7 previous iterations:
 mixing of old trial potential: alpha(m:m-4)=  0.274      0.508E-01  0.288      0.199     -0.600E-01
{SCF_istep: 18 , Vnl|psi>: 113 , wall_time: '  0.21 [s] '} <<< TIME

 ITER STEP NUMBER    19
 Total charge density [el/Bohr^3]
      Maximum=    9.4308E-01  at reduced coord.    0.0370    0.9259    0.9778
      Minimum=    2.7324E-08  at reduced coord.    0.8519    0.5926    0.4963
   Integrated=    2.6000E+01
 ETOT 19  -91.415628833263    -4.814E-03 5.501E-06 2.398E+03 9.925E-03 8.321E-01
 scprqt: <Vxc>= -1.7174242E-01 hartree

 Pulay update with  7 previous iterations:
 mixing of old trial potential: alpha(m:m-4)=  0.424     -0.104      0.349E-01  0.311      0.187
{SCF_istep: 19 , Vnl|psi>: 113 , wall_time: '  0.20 [s] '} <<< TIME

 ITER STEP NUMBER    20
 Total charge density [el/Bohr^3]
      Maximum=    9.9797E-01  at reduced coord.    0.0741    0.9259    0.9778
      Minimum=    0.0000E+00  at reduced coord.    0.4074    0.1852    0.3926
   Integrated=    2.6000E+01
 ETOT 20  -91.442101583338    -2.647E-02 1.426E-06 1.118E+03 5.574E-01 6.379E-01
 scprqt: <Vxc>= -1.3327182E-01 hartree

 Pulay update with  7 previous iterations:
 mixing of old trial potential: alpha(m:m-4)=  0.353      0.507     -0.534E-01 -0.652E-01 -0.233E-01
 
 -------------------------------------------------------------------------------------------------
 Ekinetic   = :     3.402530E+01 Ha ,    9.258755E+02 eV
 Evext_l    = :    -6.026975E+02 Ha ,   -1.640023E+04 eV
 Evext_nl   = :     1.169745E+01 Ha ,    3.183037E+02 eV
 Epsp_core  = :     8.513015E-01 Ha ,    2.316509E+01 eV
 Ehartree   = :     2.812639E+02 Ha ,    7.653579E+03 eV
 Exc_ks     = :    -1.774692E+01 Ha ,   -4.829183E+02 eV
 Enn        = :     2.011644E+02 Ha ,    5.473962E+03 eV
 -------------------------------------------------------------------------------------------------
 Etot       = :    -9.144210E+01 Ha ,   -2.488266E+03 eV
 -------------------------------------------------------------------------------------------------

 Cartesian components of stress tensor (hartree/bohr^3)
  sigma(1 1)= -6.70268177E-04  sigma(3 2)=  0.00000000E+00
  sigma(2 2)= -1.85997166E-03  sigma(3 1)=  0.00000000E+00
  sigma(3 3)= -2.46638048E-03  sigma(2 1)=  0.00000000E+00


--- !ScfConvergenceWarning
message: |
    nstep 20 was not enough SCF cycles to converge.
...

 scprqt:  WARNING -
  nstep=   20 was not enough SCF cycles to converge;
  maximum force difference=  5.574E-01 exceeds toldff=  5.000E-05


 fftdatar_write: About to write data to: o_DS1_TIM1_DEN with iomode: IO_MODE_FORTRAN
 IO operation completed. cpu:  0.00 [s] , wall:  0.00 [s] <<< TIME
- Creating netcdf file WITHOUT MPI-IO support: o_DS1_GSR.nc
 Integrated electronic density in atomic spheres:
 ------------------------------------------------
 Atom  Sphere_radius  Integrated_density
    1        2.00000         11.74413822
    2        2.00000          5.21775650
    3        2.00000          5.21775650
 Write iteration in HIST netCDF file (also create it)

---OUTPUT-----------------------------------------------------------------------

 Cartesian coordinates (xcart) [bohr]
  0.00000000000000E+00  0.00000000000000E+00  0.00000000000000E+00
  3.48000000000000E+00  0.00000000000000E+00 -1.45000000000000E+00
  3.48000000000000E+00  0.00000000000000E+00  1.45000000000000E+00
 Reduced coordinates (xred)
  0.00000000000000E+00  0.00000000000000E+00  0.00000000000000E+00
  3.33197170278590E-01  3.33197170278590E-01 -4.39793751895663E-02
  3.33197170278590E-01  3.33197170278590E-01  4.39793751895663E-02
 Cartesian forces (fcart) [Ha/bohr]; max,rms= 6.37924E-01 3.77561E-01 (free atoms)
  5.59212539194448E-01  9.25185853854297E-18 -0.00000000000000E+00
 -2.79606269597224E-01  9.25185853854297E-18 -6.37923665636053E-01
 -2.79606269597224E-01 -1.85037170770859E-17  6.37923665636053E-01
 Gradient of E wrt nuclear positions in reduced coordinates (gred)
 -2.92028235829487E+00 -2.92028235829487E+00 -0.00000000000000E+00
  1.46014117914744E+00  1.46014117914744E+00  2.10323432560207E+01
  1.46014117914744E+00  1.46014117914744E+00 -2.10323432560207E+01
 Total energy (etotal) [Ha]= -9.14421015833377E+01
 fconv : at Broyd/MD step   1, gradients have not converged yet. 
  max grad (force/stress) = 6.3792E-01 > tolmxf= 5.0000E-04 ha/bohr (free atoms)

Inverse hessian has been initialized.
 EXIT:           1           1
 {mover_itime: 1 , wall_time: '  5.21 [s] '} <<< TIME

--- Iteration: ( 2/20) Internal Cycle: (1/1)
--------------------------------------------------------------------------------

 Cartesian coordinates (xcart) [bohr]
  5.59212539194448E-01  0.00000000000000E+00  0.00000000000000E+00
  3.20039373040278E+00  0.00000000000000E+00 -2.08792366563605E+00
  3.20039373040278E+00  0.00000000000000E+00  2.08792366563605E+00
 Reduced coordinates (xred)
  5.35425389781308E-02  5.35425389781308E-02  0.00000000000000E+00
  3.06425900789525E-01  3.06425900789525E-01 -6.33279850056431E-02
  3.06425900789525E-01  3.06425900789525E-01  6.33279850056431E-02

---SELF-CONSISTENT-FIELD CONVERGENCE--------------------------------------------
 m_mover, before scfcv_run : itimes(1:2)=   2   1

 getcut: wavevector=  0.0000  0.0000  0.0000  ngfft=  27  27 135
         ecut(hartree)=     20.000   => boxcut(ratio)=   2.01886

 ITER STEP NUMBER     1
 Max number of non-self-consistent loops: 2
 Total charge density [el/Bohr^3]
      Maximum=    1.1433E+00  at reduced coord.    0.0000    0.2222    0.0000
      Minimum=    2.0739E-03  at reduced coord.    0.4074    0.1111    0.4963
   Integrated=    2.6000E+01
 ETOT  1  -82.175832747754    -8.218E+01 4.725E-02 4.219E+05 1.366E+00 2.004E+00
 scprqt: <Vxc>= -2.5336969E-01 hartree

 Simple mixing update:
  residual square of the potential:    118219.16837508290
{SCF_istep: 1 , Vnl|psi>: 339 , wall_time: '  0.88 [s] '} <<< TIME

 ITER STEP NUMBER     2
 Max number of non-self-consistent loops: 2
 Total charge density [el/Bohr^3]
      Maximum=    9.7024E-01  at reduced coord.    0.0000    0.9630    0.9852
      Minimum=    2.2155E-07  at reduced coord.    0.9630    0.2963    0.2444
   Integrated=    2.6000E+01
 ETOT  2  -88.539184551338    -6.363E+00 1.142E-01 1.816E+05 3.649E+00 1.864E+00
 scprqt: <Vxc>= -1.3477173E-01 hartree

 Pulay update with  1 previous iterations:
 mixing of old trial potential: alpha(m:m-4)=  0.601      0.399
{SCF_istep: 2 , Vnl|psi>: 213 , wall_time: '  0.38 [s] '} <<< TIME

 ITER STEP NUMBER     3
 Total charge density [el/Bohr^3]
      Maximum=    9.3317E-01  at reduced coord.    0.1111    0.9630    0.9778
      Minimum=    6.6752E-08  at reduced coord.    0.3704    0.3704    0.3185
   Integrated=    2.6000E+01
 ETOT  3  -91.500324616915    -2.961E+00 7.822E-02 3.148E+04 1.326E+00 5.381E-01
 scprqt: <Vxc>= -1.4085181E-01 hartree

 Pulay update with  2 previous iterations:
 mixing of old trial potential: alpha(m:m-4)=  0.369      0.324      0.307
{SCF_istep: 3 , Vnl|psi>: 113 , wall_time: '  0.20 [s] '} <<< TIME

 ITER STEP NUMBER     4
 Total charge density [el/Bohr^3]
      Maximum=    9.7638E-01  at reduced coord.    0.1852    0.9630    0.9852
      Minimum=    1.0443E-08  at reduced coord.    0.8519    0.5185    0.4667
   Integrated=    2.6000E+01
 ETOT  4  -91.685898228242    -1.856E-01 5.536E-03 3.134E+04 1.711E-01 7.093E-01
 scprqt: <Vxc>= -1.3775559E-01 hartree

 Pulay update with  3 previous iterations:
 mixing of old trial potential: alpha(m:m-4)=  0.220      0.239      0.255      0.286
{SCF_istep: 4 , Vnl|psi>: 113 , wall_time: '  0.23 [s] '} <<< TIME

 ITER STEP NUMBER     5
 Total charge density [el/Bohr^3]
      Maximum=    9.5927E-01  at reduced coord.    0.1852    0.9630    0.9852
      Minimum=    0.0000E+00  at reduced coord.    0.7407    0.7037    0.3185
   Integrated=    2.6000E+01
 ETOT  5  -91.726180932838    -4.028E-02 6.119E-04 2.614E+04 1.551E-02 7.001E-01
 scprqt: <Vxc>= -1.3827805E-01 hartree

 Pulay update with  4 previous iterations:
 mixing of old trial potential: alpha(m:m-4)=   3.08      -1.82     -0.431      0.133E-01  0.163
{SCF_istep: 5 , Vnl|psi>: 112 , wall_time: '  0.21 [s] '} <<< TIME

 ITER STEP NUMBER     6
 Total charge density [el/Bohr^3]
      Maximum=    9.7227E-01  at reduced coord.    0.1852    0.9630    0.9852
      Minimum=    0.0000E+00  at reduced coord.    0.7778    0.0370    0.4296
   Integrated=    2.6000E+01
 ETOT  6  -91.806178585888    -8.000E-02 1.535E-03 8.269E+03 8.963E-02 6.879E-01
 scprqt: <Vxc>= -1.4353371E-01 hartree

 Pulay update with  5 previous iterations:
 mixing of old trial potential: alpha(m:m-4)=  0.764       1.88      -1.44     -0.326      0.178E-01
{SCF_istep: 6 , Vnl|psi>: 113 , wall_time: '  0.20 [s] '} <<< TIME

 ITER STEP NUMBER     7
 Total charge density [el/Bohr^3]
      Maximum=    9.6805E-01  at reduced coord.    0.1852    0.9630    0.9852
      Minimum=    0.0000E+00  at reduced coord.    0.7778    0.0370    0.4296
   Integrated=    2.6000E+01
 ETOT  7  -91.830305399393    -2.413E-02 2.105E-03 3.223E+03 4.398E-02 6.439E-01
 scprqt: <Vxc>= -1.4744886E-01 hartree

 Pulay update with  6 previous iterations:
 mixing of old trial potential: alpha(m:m-4)=   1.60     -0.767      0.776     -0.496     -0.181
{SCF_istep: 7 , Vnl|psi>: 113 , wall_time: '  0.20 [s] '} <<< TIME

 ITER STEP NUMBER     8
 Total charge density [el/Bohr^3]
      Maximum=    9.6941E-01  at reduced coord.    0.1852    0.9630    0.9852
      Minimum=    1.3374E-08  at reduced coord.    0.7778    0.5185    0.4667
   Integrated=    2.6000E+01
 ETOT  8  -91.840787164330    -1.048E-02 1.222E-03 8.046E+02 8.566E-03 6.431E-01
 scprqt: <Vxc>= -1.5179152E-01 hartree

 Pulay update with  7 previous iterations:
 mixing of old trial potential: alpha(m:m-4)=  0.834      0.603     -0.517      0.366     -0.230
{SCF_istep: 8 , Vnl|psi>: 112 , wall_time: '  0.19 [s] '} <<< TIME

 ITER STEP NUMBER     9
 Total charge density [el/Bohr^3]
      Maximum=    9.6871E-01  at reduced coord.    0.1852    0.9630    0.9852
      Minimum=    0.0000E+00  at reduced coord.    0.7778    0.5185    0.4667
   Integrated=    2.6000E+01
 ETOT  9  -91.844358874739    -3.572E-03 3.144E-04 1.827E+02 2.125E-02 6.219E-01
 scprqt: <Vxc>= -1.5391183E-01 hartree

 Pulay update with  7 previous iterations:
 mixing of old trial potential: alpha(m:m-4)=  0.759      0.374      0.192     -0.282     -0.392E-01
{SCF_istep: 9 , Vnl|psi>: 113 , wall_time: '  0.19 [s] '} <<< TIME

 ITER STEP NUMBER    10
 Total charge density [el/Bohr^3]
      Maximum=    9.6853E-01  at reduced coord.    0.1852    0.9630    0.9852
      Minimum=    2.7135E-08  at reduced coord.    0.6296    0.6296    0.4963
   Integrated=    2.6000E+01
 ETOT 10  -91.845180554933    -8.217E-04 6.271E-04 1.225E+01 5.081E-03 6.168E-01
 scprqt: <Vxc>= -1.5819158E-01 hartree

 Pulay update with  7 previous iterations:
 mixing of old trial potential: alpha(m:m-4)=  0.218      0.542      0.309      0.193     -0.238
{SCF_istep: 10 , Vnl|psi>: 113 , wall_time: '  0.22 [s] '} <<< TIME

 ITER STEP NUMBER    11
 Total charge density [el/Bohr^3]
      Maximum=    9.6833E-01  at reduced coord.    0.1852    0.9630    0.9852
      Minimum=    1.0056E-08  at reduced coord.    0.7778    0.5185    0.4667
   Integrated=    2.6000E+01
 ETOT 11  -91.845150806328     2.975E-05 5.174E-04 1.144E+01 6.809E-04 6.174E-01
 scprqt: <Vxc>= -1.5714469E-01 hartree

 Pulay update with  7 previous iterations:
 mixing of old trial potential: alpha(m:m-4)=  0.633      0.512E-01  0.241      0.184     -0.166E-01
{SCF_istep: 11 , Vnl|psi>: 112 , wall_time: '  0.21 [s] '} <<< TIME

 ITER STEP NUMBER    12
 Total charge density [el/Bohr^3]
      Maximum=    9.6808E-01  at reduced coord.    0.1852    0.9630    0.9852
      Minimum=    0.0000E+00  at reduced coord.    0.7778    0.5185    0.4667
   Integrated=    2.6000E+01
 ETOT 12  -91.845401775273    -2.510E-04 4.948E-05 7.652E-01 7.690E-03 6.153E-01
 scprqt: <Vxc>= -1.5623757E-01 hartree

 Pulay update with  7 previous iterations:
 mixing of old trial potential: alpha(m:m-4)=  0.825      0.855E-01  0.382E-01 -0.229E-01  0.986E-01
{SCF_istep: 12 , Vnl|psi>: 113 , wall_time: '  0.21 [s] '} <<< TIME

 ITER STEP NUMBER    13
 Total charge density [el/Bohr^3]
      Maximum=    9.6960E-01  at reduced coord.    0.1852    0.9630    0.9852
      Minimum=    0.0000E+00  at reduced coord.    0.7778    0.5185    0.4667
   Integrated=    2.6000E+01
 ETOT 13  -91.845420713879    -1.894E-05 2.149E-06 1.916E-01 5.083E-03 6.173E-01
 scprqt: <Vxc>= -1.5647452E-01 hartree

 Pulay update with  7 previous iterations:
 mixing of old trial potential: alpha(m:m-4)=  0.829      0.195     -0.400E-01  0.203E-01 -0.660E-01
{SCF_istep: 13 , Vnl|psi>: 112 , wall_time: '  0.20 [s] '} <<< TIME

 ITER STEP NUMBER    14
 Total charge density [el/Bohr^3]
      Maximum=    9.6851E-01  at reduced coord.    0.1852    0.9630    0.9852
      Minimum=    0.0000E+00  at reduced coord.    0.7778    0.5185    0.4667
   Integrated=    2.6000E+01
 ETOT 14  -91.845428171900    -7.458E-06 2.713E-06 9.283E-02 1.278E-03 6.167E-01
 scprqt: <Vxc>= -1.5634654E-01 hartree

 Pulay update with  7 previous iterations:
 mixing of old trial potential: alpha(m:m-4)=  0.708      0.420     -0.290E-01 -0.727E-01  0.127E-01
{SCF_istep: 14 , Vnl|psi>: 112 , wall_time: '  0.19 [s] '} <<< TIME

 ITER STEP NUMBER    15
 Total charge density [el/Bohr^3]
      Maximum=    9.6903E-01  at reduced coord.    0.1852    0.9630    0.9852
      Minimum=    0.0000E+00  at reduced coord.    0.7778    0.5185    0.4667
   Integrated=    2.6000E+01
 ETOT 15  -91.845441199308    -1.303E-05 6.956E-07 3.508E-02 3.854E-05 6.167E-01
 scprqt: <Vxc>= -1.5629871E-01 hartree

 Pulay update with  7 previous iterations:
 mixing of old trial potential: alpha(m:m-4)=  0.492      0.281      0.257      0.406E-02 -0.266E-01
{SCF_istep: 15 , Vnl|psi>: 112 , wall_time: '  0.20 [s] '} <<< TIME

 ITER STEP NUMBER    16
 Total charge density [el/Bohr^3]
      Maximum=    9.6890E-01  at reduced coord.    0.1852    0.9630    0.9852
      Minimum=    0.0000E+00  at reduced coord.    0.7778    0.5185    0.4667
   Integrated=    2.6000E+01
 ETOT 16  -91.845441330609    -1.313E-07 1.353E-07 4.287E-03 1.448E-04 6.168E-01
 scprqt: <Vxc>= -1.5632386E-01 hartree

 Pulay update with  7 previous iterations:
 mixing of old trial potential: alpha(m:m-4)=   1.56     -0.140     -0.433     -0.225E-01  0.173E-01
{SCF_istep: 16 , Vnl|psi>: 112 , wall_time: '  0.21 [s] '} <<< TIME

 ITER STEP NUMBER    17
 Total charge density [el/Bohr^3]
      Maximum=    9.6898E-01  at reduced coord.    0.1852    0.9630    0.9852
      Minimum=    0.0000E+00  at reduced coord.    0.7778    0.5185    0.4667
   Integrated=    2.6000E+01
 ETOT 17  -91.845441846847    -5.162E-07 2.235E-08 1.445E-03 3.189E-04 6.171E-01
 scprqt: <Vxc>= -1.5633227E-01 hartree

 Pulay update with  7 previous iterations:
 mixing of old trial potential: alpha(m:m-4)=  0.701      0.228      0.168     -0.982E-01 -0.110E-01
{SCF_istep: 17 , Vnl|psi>: 112 , wall_time: '  0.20 [s] '} <<< TIME

 ITER STEP NUMBER    18
 Total charge density [el/Bohr^3]
      Maximum=    9.6899E-01  at reduced coord.    0.1852    0.9630    0.9852
      Minimum=    0.0000E+00  at reduced coord.    0.7778    0.5185    0.4667
   Integrated=    2.6000E+01
 ETOT 18  -91.845441869005    -2.216E-08 3.303E-08 5.834E-04 1.095E-04 6.170E-01
 scprqt: <Vxc>= -1.5633263E-01 hartree

 Pulay update with  7 previous iterations:
 mixing of old trial potential: alpha(m:m-4)=   1.77     -0.547     -0.431      0.134      0.919E-01
{SCF_istep: 18 , Vnl|psi>: 113 , wall_time: '  0.21 [s] '} <<< TIME

 ITER STEP NUMBER    19
 Total charge density [el/Bohr^3]
      Maximum=    9.6898E-01  at reduced coord.    0.1852    0.9630    0.9852
      Minimum=    0.0000E+00  at reduced coord.    0.7778    0.5185    0.4667
   Integrated=    2.6000E+01
 ETOT 19  -91.845441865160     3.845E-09 6.028E-09 8.355E-05 3.751E-05 6.170E-01
 scprqt: <Vxc>= -1.5632982E-01 hartree

 Pulay update with  7 previous iterations:
 mixing of old trial potential: alpha(m:m-4)=  0.881     -0.108      0.202      0.419E-01  0.324E-02
{SCF_istep: 19 , Vnl|psi>: 112 , wall_time: '  0.20 [s] '} <<< TIME

 ITER STEP NUMBER    20
 Total charge density [el/Bohr^3]
      Maximum=    9.6901E-01  at reduced coord.    0.1852    0.9630    0.9852
      Minimum=    0.0000E+00  at reduced coord.    0.7778    0.5185    0.4667
   Integrated=    2.6000E+01
 ETOT 20  -91.845441872943    -7.783E-09 1.082E-08 8.927E-06 3.820E-05 6.170E-01
 scprqt: <Vxc>= -1.5633008E-01 hartree

 At SCF step   20, forces are converged : 
  for the second time, max diff in force=  3.820E-05 < toldff=  5.000E-05
 
 -------------------------------------------------------------------------------------------------
 Ekinetic   = :     3.230906E+01 Ha ,    8.791743E+02 eV
 Evext_l    = :    -5.575425E+02 Ha ,   -1.517150E+04 eV
 Evext_nl   = :     1.166075E+01 Ha ,    3.173051E+02 eV
 Epsp_core  = :     8.513015E-01 Ha ,    2.316509E+01 eV
 Ehartree   = :     2.570826E+02 Ha ,    6.995575E+03 eV
 Exc_ks     = :    -1.728736E+01 Ha ,   -4.704129E+02 eV
 Enn        = :     1.810806E+02 Ha ,    4.927454E+03 eV
 -------------------------------------------------------------------------------------------------
 Etot       = :    -9.184544E+01 Ha ,   -2.499242E+03 eV
 -------------------------------------------------------------------------------------------------

 Cartesian components of stress tensor (hartree/bohr^3)
  sigma(1 1)= -1.05664154E-03  sigma(3 2)=  0.00000000E+00
  sigma(2 2)= -6.04549062E-04  sigma(3 1)=  0.00000000E+00
  sigma(3 3)= -7.21704505E-04  sigma(2 1)=  0.00000000E+00


 fftdatar_write: About to write data to: o_DS1_TIM2_DEN with iomode: IO_MODE_FORTRAN
 IO operation completed. cpu:  0.00 [s] , wall:  0.00 [s] <<< TIME
- Creating netcdf file WITHOUT MPI-IO support: o_DS1_GSR.nc
 Integrated electronic density in atomic spheres:
 ------------------------------------------------
 Atom  Sphere_radius  Integrated_density
    1        2.00000         11.46913718
    2        2.00000          4.52945865
    3        2.00000          4.52945865
 Write iteration in HIST netCDF file

---OUTPUT-----------------------------------------------------------------------

 Cartesian coordinates (xcart) [bohr]
  5.59212539194448E-01  0.00000000000000E+00  0.00000000000000E+00
  3.20039373040278E+00  0.00000000000000E+00 -2.08792366563605E+00
  3.20039373040278E+00  0.00000000000000E+00  2.08792366563605E+00
 Reduced coordinates (xred)
  5.35425389781308E-02  5.35425389781308E-02  0.00000000000000E+00
  3.06425900789525E-01  3.06425900789525E-01 -6.33279850056431E-02
  3.06425900789525E-01  3.06425900789525E-01  6.33279850056431E-02
 Cartesian forces (fcart) [Ha/bohr]; max,rms= 6.16981E-01 2.77080E-01 (free atoms)
 -6.16981346996129E-01 -0.00000000000000E+00 -0.00000000000000E+00
  3.08490673498065E-01 -0.00000000000000E+00 -2.44910654317282E-01
  3.08490673498064E-01 -0.00000000000000E+00  2.44910654317282E-01
 Gradient of E wrt nuclear positions in reduced coordinates (gred)
  3.22195876656353E+00  3.22195876656353E+00  0.00000000000000E+00
 -1.61097938328177E+00 -1.61097938328177E+00  8.07470427284079E+00
 -1.61097938328177E+00 -1.61097938328177E+00 -8.07470427284079E+00
 Total energy (etotal) [Ha]= -9.18454418729429E+01

 Difference of energy with previous step (new-old):
           Absolute (Ha)=-4.03340E-01
           Relative     =-4.40118E-03
 fconv : at Broyd/MD step   2, gradients have not converged yet. 
  max grad (force/stress) = 6.1698E-01 > tolmxf= 5.0000E-04 ha/bohr (free atoms)

 EXIT:           1           1
 {mover_itime: 2 , wall_time: '  5.44 [s] '} <<< TIME

--- Iteration: ( 3/20) Internal Cycle: (1/1)
--------------------------------------------------------------------------------

 Cartesian coordinates (xcart) [bohr]
  2.40519338084337E-01  0.00000000000000E+00  0.00000000000000E+00
  3.35974033095783E+00  0.00000000000000E+00 -2.54236223123540E+00
  3.35974033095783E+00  0.00000000000000E+00  2.54236223123539E+00
 Reduced coordinates (xred)
  2.30288398985577E-02  2.30288398985577E-02  0.00000000000000E+00
  3.21682750329311E-01  3.21682750329311E-01 -7.71113809898512E-02
  3.21682750329311E-01  3.21682750329311E-01  7.71113809898512E-02

---SELF-CONSISTENT-FIELD CONVERGENCE--------------------------------------------
 m_mover, before scfcv_run : itimes(1:2)=   3   1

 getcut: wavevector=  0.0000  0.0000  0.0000  ngfft=  27  27 135
         ecut(hartree)=     20.000   => boxcut(ratio)=   2.01886

 ITER STEP NUMBER     1
 Max number of non-self-consistent loops: 2
 Total charge density [el/Bohr^3]
      Maximum=    1.1515E+00  at reduced coord.    0.1852    0.8889    0.0000
      Minimum=    2.0586E-07  at reduced coord.    0.7778    0.0741    0.4963
   Integrated=    2.6000E+01
 ETOT  1  -90.675862134648    -9.068E+01 2.449E-02 4.921E+03 9.596E-01 1.577E+00
 scprqt: <Vxc>= -1.7421912E-01 hartree

 Simple mixing update:
  residual square of the potential:    2558.2881769220103
{SCF_istep: 1 , Vnl|psi>: 338 , wall_time: '  0.87 [s] '} <<< TIME

 ITER STEP NUMBER     2
 Max number of non-self-consistent loops: 2
 Total charge density [el/Bohr^3]
      Maximum=    7.9176E-01  at reduced coord.    0.1111    0.1111    0.0000
      Minimum=    2.8315E-08  at reduced coord.    0.7407    0.3704    0.4519
   Integrated=    2.6000E+01
 ETOT  2  -89.427786688809     1.248E+00 2.477E-03 1.166E+04 2.522E+00 9.458E-01
 scprqt: <Vxc>= -1.6668957E-01 hartree

 Pulay update with  1 previous iterations:
 mixing of old trial potential: alpha(m:m-4)=  0.356      0.644
{SCF_istep: 2 , Vnl|psi>: 211 , wall_time: '  0.36 [s] '} <<< TIME

 ITER STEP NUMBER     3
 Total charge density [el/Bohr^3]
      Maximum=    9.6815E-01  at reduced coord.    0.1481    0.9259    0.9852
      Minimum=    3.9448E-07  at reduced coord.    0.7037    0.7037    0.4370
   Integrated=    2.6000E+01
 ETOT  3  -91.781330807641    -2.354E+00 4.413E-02 5.000E+03 7.067E-01 3.150E-01
 scprqt: <Vxc>= -1.5630922E-01 hartree

 Pulay update with  2 previous iterations:
 mixing of old trial potential: alpha(m:m-4)=  0.467      0.210      0.323
{SCF_istep: 3 , Vnl|psi>: 112 , wall_time: '  0.20 [s] '} <<< TIME

 ITER STEP NUMBER     4
 Total charge density [el/Bohr^3]
      Maximum=    9.4639E-01  at reduced coord.    0.9259    0.9630    0.0000
      Minimum=    3.7451E-07  at reduced coord.    0.8148    0.0370    0.4963
   Integrated=    2.6000E+01
 ETOT  4  -92.036497547398    -2.552E-01 4.171E-03 4.301E+02 3.742E-01 1.351E-01
 scprqt: <Vxc>= -1.6785790E-01 hartree

 Pulay update with  3 previous iterations:
 mixing of old trial potential: alpha(m:m-4)=  0.616      0.267      0.207E-01  0.967E-01
{SCF_istep: 4 , Vnl|psi>: 112 , wall_time: '  0.21 [s] '} <<< TIME

 ITER STEP NUMBER     5
 Total charge density [el/Bohr^3]
      Maximum=    9.5618E-01  at reduced coord.    0.9259    0.9630    0.0000
      Minimum=    1.0488E-08  at reduced coord.    0.8148    0.7407    0.4667
   Integrated=    2.6000E+01
 ETOT  5  -92.069689512227    -3.319E-02 1.886E-04 4.418E+01 4.248E-02 1.775E-01
 scprqt: <Vxc>= -1.6410243E-01 hartree

 Pulay update with  4 previous iterations:
 mixing of old trial potential: alpha(m:m-4)=  0.579      0.205      0.157      0.140E-01  0.453E-01
{SCF_istep: 5 , Vnl|psi>: 113 , wall_time: '  0.20 [s] '} <<< TIME

 ITER STEP NUMBER     6
 Total charge density [el/Bohr^3]
      Maximum=    9.5487E-01  at reduced coord.    0.9259    0.9630    0.0000
      Minimum=    0.0000E+00  at reduced coord.    0.7407    0.5185    0.4667
   Integrated=    2.6000E+01
 ETOT  6  -92.070369803582    -6.803E-04 9.417E-06 2.478E+01 3.984E-03 1.736E-01
 scprqt: <Vxc>= -1.6385746E-01 hartree

 Pulay update with  5 previous iterations:
 mixing of old trial potential: alpha(m:m-4)=   1.59     -0.554     -0.633E-01  0.362E-01 -0.676E-02
{SCF_istep: 6 , Vnl|psi>: 113 , wall_time: '  0.20 [s] '} <<< TIME

 ITER STEP NUMBER     7
 Total charge density [el/Bohr^3]
      Maximum=    9.5582E-01  at reduced coord.    0.9259    0.9630    0.0000
      Minimum=    0.0000E+00  at reduced coord.    0.7407    0.5185    0.4667
   Integrated=    2.6000E+01
 ETOT  7  -92.071548954437    -1.179E-03 1.532E-05 5.422E-01 8.187E-03 1.700E-01
 scprqt: <Vxc>= -1.6338957E-01 hartree

 Pulay update with  6 previous iterations:
 mixing of old trial potential: alpha(m:m-4)=  0.547      0.771     -0.285     -0.560E-01  0.170E-01
{SCF_istep: 7 , Vnl|psi>: 113 , wall_time: '  0.20 [s] '} <<< TIME

 ITER STEP NUMBER     8
 Total charge density [el/Bohr^3]
      Maximum=    9.5469E-01  at reduced coord.    0.9259    0.9630    0.0000
      Minimum=    0.0000E+00  at reduced coord.    0.7407    0.5185    0.4667
   Integrated=    2.6000E+01
 ETOT  8  -92.071665725287    -1.168E-04 1.375E-06 6.715E-01 1.626E-03 1.684E-01
 scprqt: <Vxc>= -1.6342073E-01 hartree

 Pulay update with  7 previous iterations:
 mixing of old trial potential: alpha(m:m-4)=   1.16     -0.258      0.185     -0.399E-01 -0.433E-01
{SCF_istep: 8 , Vnl|psi>: 113 , wall_time: '  0.20 [s] '} <<< TIME

 ITER STEP NUMBER     9
 Total charge density [el/Bohr^3]
      Maximum=    9.5524E-01  at reduced coord.    0.9259    0.9630    0.0000
      Minimum=    0.0000E+00  at reduced coord.    0.7407    0.5185    0.4667
   Integrated=    2.6000E+01
 ETOT  9  -92.071666971929    -1.247E-06 7.158E-07 2.131E-01 1.778E-03 1.684E-01
 scprqt: <Vxc>= -1.6330146E-01 hartree

 Pulay update with  7 previous iterations:
 mixing of old trial potential: alpha(m:m-4)=  0.738      0.619     -0.388      0.108E-01  0.360E-01
{SCF_istep: 9 , Vnl|psi>: 113 , wall_time: '  0.20 [s] '} <<< TIME

 ITER STEP NUMBER    10
 Total charge density [el/Bohr^3]
      Maximum=    9.5488E-01  at reduced coord.    0.9259    0.9630    0.0000
      Minimum=    0.0000E+00  at reduced coord.    0.7407    0.5185    0.4667
   Integrated=    2.6000E+01
 ETOT 10  -92.071705975653    -3.900E-05 1.643E-07 6.291E-03 4.170E-04 1.680E-01
 scprqt: <Vxc>= -1.6332600E-01 hartree

 Pulay update with  7 previous iterations:
 mixing of old trial potential: alpha(m:m-4)=  0.860      0.109      0.213     -0.168     -0.491E-01
{SCF_istep: 10 , Vnl|psi>: 113 , wall_time: '  0.20 [s] '} <<< TIME

 ITER STEP NUMBER    11
 Total charge density [el/Bohr^3]
      Maximum=    9.5483E-01  at reduced coord.    0.9259    0.9630    0.0000
      Minimum=    0.0000E+00  at reduced coord.    0.7407    0.5185    0.4667
   Integrated=    2.6000E+01
 ETOT 11  -92.071706824393    -8.487E-07 7.249E-09 1.209E-03 3.564E-05 1.680E-01
 scprqt: <Vxc>= -1.6332093E-01 hartree

 Pulay update with  7 previous iterations:
 mixing of old trial potential: alpha(m:m-4)=  0.917      0.117     -0.931E-01  0.831E-01 -0.120E-01
{SCF_istep: 11 , Vnl|psi>: 113 , wall_time: '  0.19 [s] '} <<< TIME

 ITER STEP NUMBER    12
 Total charge density [el/Bohr^3]
      Maximum=    9.5483E-01  at reduced coord.    0.9259    0.9630    0.0000
      Minimum=    0.0000E+00  at reduced coord.    0.7407    0.5185    0.4667
   Integrated=    2.6000E+01
 ETOT 12  -92.071706811905     1.249E-08 4.275E-11 5.617E-04 1.057E-05 1.680E-01
 scprqt: <Vxc>= -1.6332103E-01 hartree

 At SCF step   12, forces are converged : 
  for the second time, max diff in force=  1.057E-05 < toldff=  5.000E-05
 
 -------------------------------------------------------------------------------------------------
 Ekinetic   = :     3.102918E+01 Ha ,    8.443468E+02 eV
 Evext_l    = :    -5.226403E+02 Ha ,   -1.422177E+04 eV
 Evext_nl   = :     1.156170E+01 Ha ,    3.146098E+02 eV
 Epsp_core  = :     8.513015E-01 Ha ,    2.316509E+01 eV
 Ehartree   = :     2.399390E+02 Ha ,    6.529073E+03 eV
 Exc_ks     = :    -1.692332E+01 Ha ,   -4.605069E+02 eV
 Enn        = :     1.641107E+02 Ha ,    4.465681E+03 eV
 -------------------------------------------------------------------------------------------------
 Etot       = :    -9.207171E+01 Ha ,   -2.505399E+03 eV
 -------------------------------------------------------------------------------------------------

 Cartesian components of stress tensor (hartree/bohr^3)
  sigma(1 1)= -2.20470296E-04  sigma(3 2)=  0.00000000E+00
  sigma(2 2)= -1.49842271E-04  sigma(3 1)=  0.00000000E+00
  sigma(3 3)=  5.39067155E-05  sigma(2 1)=  0.00000000E+00


 fftdatar_write: About to write data to: o_DS1_TIM3_DEN with iomode: IO_MODE_FORTRAN
 IO operation completed. cpu:  0.00 [s] , wall:  0.00 [s] <<< TIME
- Creating netcdf file WITHOUT MPI-IO support: o_DS1_GSR.nc
 Integrated electronic density in atomic spheres:
 ------------------------------------------------
 Atom  Sphere_radius  Integrated_density
    1        2.00000         10.93433168
    2        2.00000          4.06395074
    3        2.00000          4.06395074
 Write iteration in HIST netCDF file

---OUTPUT-----------------------------------------------------------------------

 Cartesian coordinates (xcart) [bohr]
  2.40519338084337E-01  0.00000000000000E+00  0.00000000000000E+00
  3.35974033095783E+00  0.00000000000000E+00 -2.54236223123540E+00
  3.35974033095783E+00  0.00000000000000E+00  2.54236223123539E+00
 Reduced coordinates (xred)
  2.30288398985577E-02  2.30288398985577E-02  0.00000000000000E+00
  3.21682750329311E-01  3.21682750329311E-01 -7.71113809898512E-02
  3.21682750329311E-01  3.21682750329311E-01  7.71113809898512E-02
 Cartesian forces (fcart) [Ha/bohr]; max,rms= 1.68007E-01 7.14156E-02 (free atoms)
 -1.68007192232577E-01 -1.38777878078145E-17 -0.00000000000000E+00
  8.40035961162885E-02  0.00000000000000E+00 -4.22021547155311E-02
  8.40035961162885E-02  1.38777878078145E-17  4.22021547155311E-02
 Gradient of E wrt nuclear positions in reduced coordinates (gred)
  8.77355933846201E-01  8.77355933846201E-01  0.00000000000000E+00
 -4.38677966923100E-01 -4.38677966923100E-01  1.39140504097106E+00
 -4.38677966923100E-01 -4.38677966923101E-01 -1.39140504097106E+00
 Total energy (etotal) [Ha]= -9.20717068119052E+01

 Difference of energy with previous step (new-old):
           Absolute (Ha)=-2.26265E-01
           Relative     =-2.46051E-03
 fconv : at Broyd/MD step   3, gradients have not converged yet. 
  max grad (force/stress) = 1.6801E-01 > tolmxf= 5.0000E-04 ha/bohr (free atoms)

 EXIT:           1           1
 {mover_itime: 3 , wall_time: '  3.74 [s] '} <<< TIME

--- Iteration: ( 4/20) Internal Cycle: (1/1)
--------------------------------------------------------------------------------

 Cartesian coordinates (xcart) [bohr]
  1.28521311818152E-01  0.00000000000000E+00  0.00000000000000E+00
  3.41573934409092E+00  0.00000000000000E+00 -2.64902862529220E+00
  3.41573934409092E+00  0.00000000000000E+00  2.64902862529220E+00
 Reduced coordinates (xred)
  1.23054417868679E-02  1.23054417868679E-02  0.00000000000000E+00
  3.27044449385156E-01  3.27044449385156E-01 -8.03466371031907E-02
  3.27044449385156E-01  3.27044449385156E-01  8.03466371031907E-02

---SELF-CONSISTENT-FIELD CONVERGENCE--------------------------------------------
 m_mover, before scfcv_run : itimes(1:2)=   4   1

 getcut: wavevector=  0.0000  0.0000  0.0000  ngfft=  27  27 135
         ecut(hartree)=     20.000   => boxcut(ratio)=   2.01886

 ITER STEP NUMBER     1
 Max number of non-self-consistent loops: 2
 Total charge density [el/Bohr^3]
      Maximum=    9.6876E-01  at reduced coord.    0.0000    0.0000    0.9704
      Minimum=    1.1879E-08  at reduced coord.    0.5185    0.2222    0.4667
   Integrated=    2.6000E+01
 ETOT  1  -92.058000805763    -9.206E+01 1.807E-04 2.495E+02 1.551E-01 3.231E-01
 scprqt: <Vxc>= -1.6535168E-01 hartree

 Simple mixing update:
  residual square of the potential:    172.99477216166304
{SCF_istep: 1 , Vnl|psi>: 336 , wall_time: '  0.86 [s] '} <<< TIME

 ITER STEP NUMBER     2
 Max number of non-self-consistent loops: 2
 Total charge density [el/Bohr^3]
      Maximum=    9.2053E-01  at reduced coord.    0.9259    0.9259    0.0000
      Minimum=    1.2244E-08  at reduced coord.    0.8148    0.7037    0.4667
   Integrated=    2.6000E+01
 ETOT  2  -92.042563928929     1.544E-02 3.763E-06 1.364E+02 4.081E-01 8.497E-02
 scprqt: <Vxc>= -1.6509314E-01 hartree

 Pulay update with  1 previous iterations:
 mixing of old trial potential: alpha(m:m-4)=  0.648      0.352
{SCF_istep: 2 , Vnl|psi>: 212 , wall_time: '  0.33 [s] '} <<< TIME

 ITER STEP NUMBER     3
 Total charge density [el/Bohr^3]
      Maximum=    9.7834E-01  at reduced coord.    0.9259    0.9259    0.0000
      Minimum=    0.0000E+00  at reduced coord.    0.7407    0.2963    0.4296
   Integrated=    2.6000E+01
 ETOT  3  -91.892404664176     1.502E-01 1.719E-03 1.446E+03 2.383E-01 1.533E-01
 scprqt: <Vxc>= -1.6286384E-01 hartree

 Pulay update with  2 previous iterations:
 mixing of old trial potential: alpha(m:m-4)=  0.201      0.583      0.215
{SCF_istep: 3 , Vnl|psi>: 112 , wall_time: '  0.19 [s] '} <<< TIME

 ITER STEP NUMBER     4
 Total charge density [el/Bohr^3]
      Maximum=    9.4203E-01  at reduced coord.    0.0000    0.0000    0.9704
      Minimum=    3.0645E-08  at reduced coord.    0.7407    0.5185    0.4667
   Integrated=    2.6000E+01
 ETOT  4  -92.094471958880    -2.021E-01 5.278E-04 8.994E+00 8.226E-02 1.231E-01
 scprqt: <Vxc>= -1.6536210E-01 hartree

 Pulay update with  3 previous iterations:
 mixing of old trial potential: alpha(m:m-4)=  0.780      0.349E-02  0.206      0.109E-01
{SCF_istep: 4 , Vnl|psi>: 111 , wall_time: '  0.22 [s] '} <<< TIME

 ITER STEP NUMBER     5
 Total charge density [el/Bohr^3]
      Maximum=    9.3624E-01  at reduced coord.    0.9259    0.9259    0.0000
      Minimum=    1.1857E-08  at reduced coord.    0.5185    0.2963    0.4667
   Integrated=    2.6000E+01
 ETOT  5  -92.097805226093    -3.333E-03 3.439E-05 4.627E-01 3.460E-02 8.847E-02
 scprqt: <Vxc>= -1.6483391E-01 hartree

 Pulay update with  4 previous iterations:
 mixing of old trial potential: alpha(m:m-4)=  0.482      0.410      0.239E-02  0.103      0.197E-02
{SCF_istep: 5 , Vnl|psi>: 113 , wall_time: '  0.20 [s] '} <<< TIME

 ITER STEP NUMBER     6
 Total charge density [el/Bohr^3]
      Maximum=    9.3634E-01  at reduced coord.    0.9259    0.9259    0.0000
      Minimum=    1.0847E-08  at reduced coord.    0.5185    0.2963    0.4667
   Integrated=    2.6000E+01
 ETOT  6  -92.097814043031    -8.817E-06 7.741E-08 1.292E-01 1.051E-03 8.787E-02
 scprqt: <Vxc>= -1.6481881E-01 hartree

 Pulay update with  5 previous iterations:
 mixing of old trial potential: alpha(m:m-4)=   1.02     -0.287      0.219     -0.672E-03  0.496E-01
{SCF_istep: 6 , Vnl|psi>: 113 , wall_time: '  0.20 [s] '} <<< TIME

 ITER STEP NUMBER     7
 Total charge density [el/Bohr^3]
      Maximum=    9.3631E-01  at reduced coord.    0.9259    0.9259    0.0000
      Minimum=    1.0667E-08  at reduced coord.    0.5185    0.2963    0.4667
   Integrated=    2.6000E+01
 ETOT  7  -92.097814563872    -5.208E-07 3.455E-09 3.828E-02 4.258E-04 8.745E-02
 scprqt: <Vxc>= -1.6481390E-01 hartree

 Pulay update with  6 previous iterations:
 mixing of old trial potential: alpha(m:m-4)=   1.33     -0.256E-02 -0.351      0.180E-01 -0.244E-04
{SCF_istep: 7 , Vnl|psi>: 112 , wall_time: '  0.22 [s] '} <<< TIME

 ITER STEP NUMBER     8
 Total charge density [el/Bohr^3]
      Maximum=    9.3635E-01  at reduced coord.    0.9259    0.9259    0.0000
      Minimum=    1.0664E-08  at reduced coord.    0.5185    0.2963    0.4667
   Integrated=    2.6000E+01
 ETOT  8  -92.097815961918    -1.398E-06 1.086E-08 2.210E-03 4.452E-04 8.755E-02
 scprqt: <Vxc>= -1.6481795E-01 hartree

 Pulay update with  7 previous iterations:
 mixing of old trial potential: alpha(m:m-4)=  0.745      0.216      0.235     -0.196      0.237E-02
{SCF_istep: 8 , Vnl|psi>: 112 , wall_time: '  0.19 [s] '} <<< TIME

 ITER STEP NUMBER     9
 Total charge density [el/Bohr^3]
      Maximum=    9.3637E-01  at reduced coord.    0.9259    0.9259    0.0000
      Minimum=    1.0666E-08  at reduced coord.    0.5185    0.2963    0.4667
   Integrated=    2.6000E+01
 ETOT  9  -92.097815982956    -2.104E-08 1.202E-09 6.399E-04 8.049E-05 8.747E-02
 scprqt: <Vxc>= -1.6481709E-01 hartree

 Pulay update with  7 previous iterations:
 mixing of old trial potential: alpha(m:m-4)=  0.971      0.123E-01 -0.982E-01  0.186     -0.717E-01
{SCF_istep: 9 , Vnl|psi>: 113 , wall_time: '  0.19 [s] '} <<< TIME

 ITER STEP NUMBER    10
 Total charge density [el/Bohr^3]
      Maximum=    9.3637E-01  at reduced coord.    0.9259    0.9259    0.0000
      Minimum=    1.0677E-08  at reduced coord.    0.5185    0.2963    0.4667
   Integrated=    2.6000E+01
 ETOT 10  -92.097815988105    -5.149E-09 5.374E-10 1.048E-04 4.813E-05 8.752E-02
 scprqt: <Vxc>= -1.6481835E-01 hartree

 Pulay update with  7 previous iterations:
 mixing of old trial potential: alpha(m:m-4)=  0.554      0.541     -0.844E-01 -0.942E-01  0.117
{SCF_istep: 10 , Vnl|psi>: 113 , wall_time: '  0.20 [s] '} <<< TIME

 ITER STEP NUMBER    11
 Total charge density [el/Bohr^3]
      Maximum=    9.3637E-01  at reduced coord.    0.9259    0.9259    0.0000
      Minimum=    1.0674E-08  at reduced coord.    0.5185    0.2963    0.4667
   Integrated=    2.6000E+01
 ETOT 11  -92.097815988881    -7.762E-10 4.236E-12 2.618E-05 3.655E-06 8.752E-02
 scprqt: <Vxc>= -1.6481835E-01 hartree

 At SCF step   11, forces are converged : 
  for the second time, max diff in force=  3.655E-06 < toldff=  5.000E-05
 
 -------------------------------------------------------------------------------------------------
 Ekinetic   = :     3.084237E+01 Ha ,    8.392635E+02 eV
 Evext_l    = :    -5.151445E+02 Ha ,   -1.401780E+04 eV
 Evext_nl   = :     1.154754E+01 Ha ,    3.142244E+02 eV
 Epsp_core  = :     8.513015E-01 Ha ,    2.316509E+01 eV
 Ehartree   = :     2.363604E+02 Ha ,    6.431693E+03 eV
 Exc_ks     = :    -1.686662E+01 Ha ,   -4.589642E+02 eV
 Enn        = :     1.603118E+02 Ha ,    4.362305E+03 eV
 -------------------------------------------------------------------------------------------------
 Etot       = :    -9.209782E+01 Ha ,   -2.506109E+03 eV
 -------------------------------------------------------------------------------------------------

 Cartesian components of stress tensor (hartree/bohr^3)
  sigma(1 1)= -1.42658515E-04  sigma(3 2)=  0.00000000E+00
  sigma(2 2)= -1.18536507E-04  sigma(3 1)=  0.00000000E+00
  sigma(3 3)=  2.42709950E-04  sigma(2 1)=  0.00000000E+00


 fftdatar_write: About to write data to: o_DS1_TIM4_DEN with iomode: IO_MODE_FORTRAN
 IO operation completed. cpu:  0.00 [s] , wall:  0.00 [s] <<< TIME
- Creating netcdf file WITHOUT MPI-IO support: o_DS1_GSR.nc
 Integrated electronic density in atomic spheres:
 ------------------------------------------------
 Atom  Sphere_radius  Integrated_density
    1        2.00000         10.84807938
    2        2.00000          4.00737644
    3        2.00000          4.00737644
 Write iteration in HIST netCDF file

---OUTPUT-----------------------------------------------------------------------

 Cartesian coordinates (xcart) [bohr]
  1.28521311818152E-01  0.00000000000000E+00  0.00000000000000E+00
  3.41573934409092E+00  0.00000000000000E+00 -2.64902862529220E+00
  3.41573934409092E+00  0.00000000000000E+00  2.64902862529220E+00
 Reduced coordinates (xred)
  1.23054417868679E-02  1.23054417868679E-02  0.00000000000000E+00
  3.27044449385156E-01  3.27044449385156E-01 -8.03466371031907E-02
  3.27044449385156E-01  3.27044449385156E-01  8.03466371031907E-02
 Cartesian forces (fcart) [Ha/bohr]; max,rms= 8.75184E-02 3.57772E-02 (free atoms)
 -8.75184201367390E-02 -0.00000000000000E+00 -0.00000000000000E+00
  4.37592100683695E-02  6.93889390390723E-18 -3.92954827922298E-03
  4.37592100683695E-02 -6.93889390390723E-18  3.92954827922298E-03
 Gradient of E wrt nuclear positions in reduced coordinates (gred)
  4.57032846079098E-01  4.57032846079098E-01  0.00000000000000E+00
 -2.28516423039549E-01 -2.28516423039549E-01  1.29557206765982E-01
 -2.28516423039549E-01 -2.28516423039549E-01 -1.29557206765982E-01
 Total energy (etotal) [Ha]= -9.20978159888809E+01

 Difference of energy with previous step (new-old):
[...]
Not enough states to calculate the band gap.
 Mean square residual over all n,k,spin=   51.199E-05; max=  15.812E-04
   0.0000  0.0000  0.0000    1  1.58117E-03 kpt; spin; max resid(k); each band:
  5.33E-04 6.83E-04 4.97E-06 4.97E-06 1.58E-03 1.74E-04 1.76E-04 4.70E-04
  1.39E-03 6.45E-04
   0.0000  0.0000  0.0000    2  1.50726E-03 kpt; spin; max resid(k); each band:
  5.03E-04 4.13E-04 4.17E-06 4.17E-06 1.51E-03 3.54E-04 1.83E-04 1.83E-04
  1.30E-03 1.28E-04

   outwf: writing wavefunctions to: o_DS3_WFK with iomode: IO_MODE_FORTRAN_MASTER
 WFK output completed. cpu:  0.00 [s] , wall:  0.00 [s] <<< TIME
 prteigrs : about to open file o_DS3_EIG
 Fermi (or HOMO) energy (hartree) =   0.00534   Average Vxc (hartree)=  -0.13779
 Magnetization (Bohr magneton)=  0.00000000E+00
 Total spin up =  1.00000000E+01   Total spin down =  1.00000000E+01
 Eigenvalues (hartree) for nkpt=   1  k points, SPIN UP:
 kpt#   1, nband= 10, wtk=  1.00000, kpt=  0.0000  0.0000  0.0000 (reduced coord)
  -2.32938   -1.43964   -1.35889   -1.35889   -0.65890   -0.28868   -0.28868   -0.26024
  -0.24927   -0.04996
      occupation numbers for kpt#   1
   1.00000    1.00000    1.00000    1.00000    1.00000    1.00000    1.00000    1.00000
   1.00000    1.00000
 Eigenvalues (hartree) for nkpt=   1  k points, SPIN DOWN:
 kpt#   1, nband= 10, wtk=  1.00000, kpt=  0.0000  0.0000  0.0000 (reduced coord)
  -2.34289   -1.43874   -1.38387   -1.38387   -0.65011   -0.28748   -0.28748   -0.27181
  -0.23845   -0.14064
      occupation numbers for kpt#   1
   1.00000    1.00000    1.00000    1.00000    1.00000    1.00000    1.00000    1.00000
   1.00000    1.00000
 Total charge density [el/Bohr^3]
      Maximum=    9.6217E-01  at reduced coord.    0.2593    0.2593    0.9852
 Next maximum=    9.5343E-01  at reduced coord.    0.2222    0.2593    0.9333
      Minimum=    1.0311E-08  at reduced coord.    0.9630    0.2593    0.5185
 Next minimum=    1.0311E-08  at reduced coord.    0.2593    0.9630    0.5185
   Integrated=    2.0000E+01
 Spin up density      [el/Bohr^3]
      Maximum=    4.9935E-01  at reduced coord.    0.2593    0.2593    0.9852
 Next maximum=    4.9395E-01  at reduced coord.    0.2222    0.2593    0.9852
      Minimum=    0.0000E+00  at reduced coord.    0.0370    0.0000    0.4889
 Next minimum=    0.0000E+00  at reduced coord.    0.7037    0.0000    0.4889
   Integrated=    1.0000E+01
 Spin down density    [el/Bohr^3]
      Maximum=    4.7379E-01  at reduced coord.    0.2222    0.2593    0.9333
 Next maximum=    4.7379E-01  at reduced coord.    0.2593    0.2222    0.9333
      Minimum=    0.0000E+00  at reduced coord.    0.2222    0.0370    0.3778
 Next minimum=    0.0000E+00  at reduced coord.    0.4815    0.0370    0.3778
   Integrated=    1.0000E+01
 Magnetization (spin up - spin down) [el/Bohr^3]
      Maximum=    3.6519E-02  at reduced coord.    0.2593    0.2593    0.9852
 Next maximum=    3.5005E-02  at reduced coord.    0.2222    0.2593    0.9852
      Minimum=   -5.7616E-02  at reduced coord.    0.2593    0.0741    0.9556
 Next minimum=   -5.7616E-02  at reduced coord.    0.0741    0.2593    0.9556
   Integrated=   -1.3484E-07
 Relative magnetization (=zeta, between -1 and 1)
      Maximum=    9.9688E-01  at reduced coord.    0.0741    0.2593    0.7111
 Next maximum=    9.9688E-01  at reduced coord.    0.2593    0.0741    0.7111
      Minimum=   -2.7501E-01  at reduced coord.    0.8889    0.6296    0.9630
 Next minimum=   -2.7501E-01  at reduced coord.    0.6296    0.8889    0.9630

 Cartesian components of stress tensor (hartree/bohr^3)
  sigma(1 1)=  4.40294713E-04  sigma(3 2)=  0.00000000E+00
  sigma(2 2)=  4.40294713E-04  sigma(3 1)=  0.00000000E+00
  sigma(3 3)= -1.92897945E-03  sigma(2 1)=  0.00000000E+00

-Cartesian components of stress tensor (GPa)         [Pressure=  1.0282E+01 GPa]
- sigma(1 1)=  1.29539155E+01  sigma(3 2)=  0.00000000E+00
- sigma(2 2)=  1.29539155E+01  sigma(3 1)=  0.00000000E+00
- sigma(3 3)= -5.67525251E+01  sigma(2 1)=  0.00000000E+00

== END DATASET(S) ==============================================================
================================================================================
  
 -outvars: echo values of variables after computation  --------
 
 These variables are accessible in NetCDF format (o_OUT.nc)

            acell      6.0300000000E+00  6.0300000000E+00  3.2970000000E+01 Bohr
              amu      9.59400000E+01  3.20660000E+01
        bs_loband1          0
        bs_loband2          0       0
        bs_loband3          0       0
           diemac      2.00000000E+00
             ecut      2.00000000E+01 Hartree
           etotal1    -9.2106431600E+01
           etotal2    -7.0148747261E+01
           etotal3    -8.0636232130E+01
            fcart1     1.3080880721E-04  1.3552527156E-20 -0.0000000000E+00
                      -6.5404403607E-05 -6.7762635780E-21 -1.4225826843E-05
                      -6.5404403607E-05 -6.7762635780E-21  1.4225826843E-05
            fcart2    -0.0000000000E+00 -0.0000000000E+00 -0.0000000000E+00
            fcart3    -3.3791784142E-23 -5.8529087013E-23 -9.0191688551E-01
                       3.3791784142E-23  5.8529087013E-23  9.0191688551E-01
-          fftalg         112
           ionmov1          2
           ionmov2          0
           ionmov3          0
           istwfk        2
              ixc          11
           jdtset        1    2    3
           kptopt           0
P           mkmem           1
            natom1          3
            natom2          1
            natom3          2
            nband1         20
            nband2         10
            nband3         10
           ndtset           3
            ngfft          27      27     135
             nkpt           1
           nspden1          1
           nspden2          2
           nspden3          2
           nsppol1          1
           nsppol2          2
           nsppol3          2
            nstep          20
             nsym1          4
             nsym2         24
             nsym3         12
            ntime1         20
            ntime2          1
            ntime3          1
           ntypat           2
              occ1     2.000000  2.000000  2.000000  2.000000  2.000000  2.000000
                       2.000000  2.000000  2.000000  2.000000  2.000000  2.000000
                       2.000000  0.000000  0.000000  0.000000  0.000000  0.000000
                       0.000000  0.000000
              occ2     1.000000  1.000000  1.000000  1.000000  1.000000  1.000000
                       1.000000  0.999997  0.010015  0.010015
                       1.000000  1.000000  1.000000  1.000000  1.000000  0.979876
                       0.000049  0.000049  0.000000  0.000000
              occ3     1.000000  1.000000  1.000000  1.000000  1.000000  1.000000
                       1.000000  1.000000  1.000000  1.000000
                       1.000000  1.000000  1.000000  1.000000  1.000000  1.000000
                       1.000000  1.000000  1.000000  1.000000
           occopt1          1
           occopt2          7
           occopt3          7
        optforces1          1
        optforces2          2
        optforces3          2
            rprim      8.6602540378E-01 -5.0000000000E-01  0.0000000000E+00
                       8.6602540378E-01  5.0000000000E-01  0.0000000000E+00
                       0.0000000000E+00  0.0000000000E+00  1.0000000000E+00
          spgroup1         38
          spgroup2        191
          spgroup3        183
           spinat2     0.0000000000E+00  0.0000000000E+00  1.0000000000E+00
           spinat3     0.0000000000E+00  0.0000000000E+00  1.0000000000E+00
                       0.0000000000E+00  0.0000000000E+00  1.0000000000E+00
           strten1    -1.1715536257E-04 -1.1729050065E-04  2.6364100824E-04
                       0.0000000000E+00  0.0000000000E+00  0.0000000000E+00
           strten2     5.0426477098E-04  5.0426477098E-04  2.6548706950E-04
                       0.0000000000E+00  0.0000000000E+00  0.0000000000E+00
           strten3     4.4029471298E-04  4.4029471298E-04 -1.9289794458E-03
                       0.0000000000E+00  0.0000000000E+00  0.0000000000E+00
           symafm1       1    1    1    1
           symafm2       1    1    1    1    1    1    1    1    1    1
                         1    1    1    1    1    1    1    1    1    1
                         1    1    1    1
           symafm3       1    1    1    1    1    1    1    1    1    1
                         1    1
           symrel1     1  0  0   0  1  0   0  0  1       0  1  0   1  0  0   0  0 -1
                       1  0  0   0  1  0   0  0 -1       0  1  0   1  0  0   0  0  1
           symrel2     1  0  0   0  1  0   0  0  1      -1  0  0   0 -1  0   0  0 -1
                      -1  1  0   0  1  0   0  0  1       1 -1  0   0 -1  0   0  0 -1
                       0  1  0  -1  1  0   0  0  1       0 -1  0   1 -1  0   0  0 -1
                      -1  0  0  -1  1  0   0  0  1       1  0  0   1 -1  0   0  0 -1
                      -1  1  0  -1  0  0   0  0  1       1 -1  0   1  0  0   0  0 -1
                       0 -1  0  -1  0  0   0  0  1       0  1  0   1  0  0   0  0 -1
                      -1  0  0   0 -1  0   0  0  1       1  0  0   0  1  0   0  0 -1
                       1 -1  0   0 -1  0   0  0  1      -1  1  0   0  1  0   0  0 -1
                       0 -1  0   1 -1  0   0  0  1       0  1  0  -1  1  0   0  0 -1
                       1  0  0   1 -1  0   0  0  1      -1  0  0  -1  1  0   0  0 -1
                       1 -1  0   1  0  0   0  0  1      -1  1  0  -1  0  0   0  0 -1
                       0  1  0   1  0  0   0  0  1       0 -1  0  -1  0  0   0  0 -1
           symrel3     1  0  0   0  1  0   0  0  1      -1  1  0   0  1  0   0  0  1
                       0  1  0  -1  1  0   0  0  1      -1  0  0  -1  1  0   0  0  1
                      -1  1  0  -1  0  0   0  0  1       0 -1  0  -1  0  0   0  0  1
                      -1  0  0   0 -1  0   0  0  1       1 -1  0   0 -1  0   0  0  1
                       0 -1  0   1 -1  0   0  0  1       1  0  0   1 -1  0   0  0  1
                       1 -1  0   1  0  0   0  0  1       0  1  0   1  0  0   0  0  1
            tnons1     0.0000000  0.0000000  0.0000000     0.0000000  0.0000000  0.0000000
                       0.0000000  0.0000000  0.0000000     0.0000000  0.0000000  0.0000000
            tnons2     0.0000000  0.0000000  0.0000000     0.2000000  0.0000000  0.2000000
                       0.2000000 -0.1000000  0.0000000     0.0000000  0.1000000  0.2000000
                       0.1000000 -0.1000000  0.0000000     0.1000000  0.1000000  0.2000000
                       0.2000000  0.0000000  0.0000000     0.0000000  0.0000000  0.2000000
                       0.2000000 -0.1000000  0.0000000     0.0000000  0.1000000  0.2000000
                       0.1000000  0.1000000  0.0000000     0.1000000 -0.1000000  0.2000000
                       0.2000000  0.0000000  0.0000000     0.0000000  0.0000000  0.2000000
                       0.0000000  0.1000000  0.0000000     0.2000000 -0.1000000  0.2000000
                       0.1000000  0.1000000  0.0000000     0.1000000 -0.1000000  0.2000000
                       0.0000000  0.0000000  0.0000000     0.2000000  0.0000000  0.2000000
                       0.0000000  0.1000000  0.0000000     0.2000000 -0.1000000  0.2000000
                       0.1000000 -0.1000000  0.0000000     0.1000000  0.1000000  0.2000000
            tnons3     0.0000000  0.0000000  0.0000000     0.5000000 -0.2500000  0.0000000
                       0.5000000 -0.2500000  0.0000000    -0.2500000  0.0000000  0.0000000
                      -0.2500000  0.0000000  0.0000000     0.5000000  0.5000000  0.0000000
                       0.5000000  0.5000000  0.0000000     0.0000000 -0.2500000  0.0000000
                       0.0000000 -0.2500000  0.0000000    -0.2500000  0.5000000  0.0000000
                      -0.2500000  0.5000000  0.0000000     0.0000000  0.0000000  0.0000000
           toldfe1     0.00000000E+00 Hartree
           toldfe2     1.00000000E-06 Hartree
           toldfe3     1.00000000E-06 Hartree
           toldff1     5.00000000E-05
           toldff2     0.00000000E+00
           toldff3     0.00000000E+00
           tolmxf1     5.00000000E-04
           tolmxf2     5.00000000E-05
           tolmxf3     5.00000000E-05
            typat1     1  2  2
            typat2     1
            typat3     1  2
           xangst1    -5.8751651461E-04 -3.4424104751E-19 -4.8780604415E-19
                       1.8418304442E+00  0.0000000000E+00 -1.4030925080E+00
                       1.8418304442E+00  0.0000000000E+00  1.4030925080E+00
           xangst2     2.7634338616E-01 -1.5954692839E-01  1.7446972567E+00
           xangst3     1.3817169308E+00  0.0000000000E+00 -7.6730695246E-01
                       1.3817169308E+00  0.0000000000E+00  7.6730695246E-01
            xcart1    -1.1102453112E-03 -6.5052130349E-19 -9.2181982941E-19
                       3.4805551227E+00  0.0000000000E+00 -2.6514605792E+00
                       3.4805551227E+00  0.0000000000E+00  2.6514605792E+00
            xcart2     5.2221331848E-01 -3.0150000000E-01  3.2970000000E+00
            xcart3     2.6110665924E+00  0.0000000000E+00 -1.4500000000E+00
                       2.6110665924E+00  0.0000000000E+00  1.4500000000E+00
             xred1    -1.0630189540E-04 -1.0630189540E-04 -2.7959351817E-20
                       3.3325032123E-01  3.3325032123E-01 -8.0420399734E-02
                       3.3325032123E-01  3.3325032123E-01  8.0420399734E-02
             xred2     1.0000000000E-01  6.9388939039E-18  1.0000000000E-01
             xred3     2.5000000000E-01  2.5000000000E-01 -4.3979375190E-02
                       2.5000000000E-01  2.5000000000E-01  4.3979375190E-02
            znucl       42.00000   16.00000

================================================================================
  

================================================================================

 Suggested references for the acknowledgment of ABINIT usage.

 The users of ABINIT have little formal obligations with respect to the ABINIT group
 (those specified in the GNU General Public License, http://www.gnu.org/copyleft/gpl.txt).
 However, it is common practice in the scientific literature,
 to acknowledge the efforts of people that have made the research possible.
 In this spirit, please find below suggested citations of work written by ABINIT developers,
 corresponding to implementations inside of ABINIT that you have used in the present run.
 Note also that it will be of great value to readers of publications presenting these results,
 to read papers enabling them to understand the theoretical formalism and details
 of the ABINIT implementation.
 For information on why they are suggested, see also https://docs.abinit.org/theory/acknowledgments.
-
- [1] The Abinit project: Impact, environment and recent developments.
- Computer Phys. Comm. 248, 107042 (2020).
- X.Gonze, B. Amadon, G. Antonius, F.Arnardi, L.Baguet, J.-M.Beuken,
- J.Bieder, F.Bottin, J.Bouchet, E.Bousquet, N.Brouwer, F.Bruneval,
- G.Brunin, T.Cavignac, J.-B. Charraud, Wei Chen, M.Cote, S.Cottenier,
- J.Denier, G.Geneste, Ph.Ghosez, M.Giantomassi, Y.Gillet, O.Gingras,
- D.R.Hamann, G.Hautier, Xu He, N.Helbig, N.Holzwarth, Y.Jia, F.Jollet,
- W.Lafargue-Dit-Hauret, K.Lejaeghere, M.A.L.Marques, A.Martin, C.Martins,
- H.P.C. Miranda, F.Naccarato, K. Persson, G.Petretto, V.Planes, Y.Pouillon,
- S.Prokhorenko, F.Ricci, G.-M.Rignanese, A.H.Romero, M.M.Schmitt, M.Torrent,
- M.J.van Setten, B.Van Troeye, M.J.Verstraete, G.Zerah and J.W.Zwanzig
- Comment: the fifth generic paper describing the ABINIT project.
- Note that a version of this paper, that is not formatted for Computer Phys. Comm. 
- is available at https://www.abinit.org/sites/default/files/ABINIT20.pdf .
- The licence allows the authors to put it on the Web.
- DOI and bibtex: see https://docs.abinit.org/theory/bibliography/#gonze2020
-
- [2] Optimized norm-conserving Vanderbilt pseudopotentials.
- D.R. Hamann, Phys. Rev. B 88, 085117 (2013).
- Comment: Some pseudopotential generated using the ONCVPSP code were used.
- DOI and bibtex: see https://docs.abinit.org/theory/bibliography/#hamann2013
-
- [3] ABINIT: Overview, and focus on selected capabilities
- J. Chem. Phys. 152, 124102 (2020).
- A. Romero, D.C. Allan, B. Amadon, G. Antonius, T. Applencourt, L.Baguet,
- J.Bieder, F.Bottin, J.Bouchet, E.Bousquet, F.Bruneval,
- G.Brunin, D.Caliste, M.Cote,
- J.Denier, C. Dreyer, Ph.Ghosez, M.Giantomassi, Y.Gillet, O.Gingras,
- D.R.Hamann, G.Hautier, F.Jollet, G. Jomard,
- A.Martin, 
- H.P.C. Miranda, F.Naccarato, G.Petretto, N.A. Pike, V.Planes,
- S.Prokhorenko, T. Rangel, F.Ricci, G.-M.Rignanese, M.Royo, M.Stengel, M.Torrent,
- M.J.van Setten, B.Van Troeye, M.J.Verstraete, J.Wiktor, J.W.Zwanziger, and X.Gonze.
- Comment: a global overview of ABINIT, with focus on selected capabilities .
- Note that a version of this paper, that is not formatted for J. Chem. Phys 
- is available at https://www.abinit.org/sites/default/files/ABINIT20_JPC.pdf .
- The licence allows the authors to put it on the Web.
- DOI and bibtex: see https://docs.abinit.org/theory/bibliography/#romero2020
-
- [4] Recent developments in the ABINIT software package.
- Computer Phys. Comm. 205, 106 (2016).
- X.Gonze, F.Jollet, F.Abreu Araujo, D.Adams, B.Amadon, T.Applencourt,
- C.Audouze, J.-M.Beuken, J.Bieder, A.Bokhanchuk, E.Bousquet, F.Bruneval
- D.Caliste, M.Cote, F.Dahm, F.Da Pieve, M.Delaveau, M.Di Gennaro,
- B.Dorado, C.Espejo, G.Geneste, L.Genovese, A.Gerossier, M.Giantomassi,
- Y.Gillet, D.R.Hamann, L.He, G.Jomard, J.Laflamme Janssen, S.Le Roux,
- A.Levitt, A.Lherbier, F.Liu, I.Lukacevic, A.Martin, C.Martins,
- M.J.T.Oliveira, S.Ponce, Y.Pouillon, T.Rangel, G.-M.Rignanese,
- A.H.Romero, B.Rousseau, O.Rubel, A.A.Shukri, M.Stankovski, M.Torrent,
- M.J.Van Setten, B.Van Troeye, M.J.Verstraete, D.Waroquier, J.Wiktor,
- B.Xu, A.Zhou, J.W.Zwanziger.
- Comment: the fourth generic paper describing the ABINIT project.
- Note that a version of this paper, that is not formatted for Computer Phys. Comm. 
- is available at https://www.abinit.org/sites/default/files/ABINIT16.pdf .
- The licence allows the authors to put it on the Web.
- DOI and bibtex: see https://docs.abinit.org/theory/bibliography/#gonze2016
-
- And optionally:
-
- [5] ABINIT: First-principles approach of materials and nanosystem properties.
- Computer Phys. Comm. 180, 2582-2615 (2009).
- X. Gonze, B. Amadon, P.-M. Anglade, J.-M. Beuken, F. Bottin, P. Boulanger, F. Bruneval,
- D. Caliste, R. Caracas, M. Cote, T. Deutsch, L. Genovese, Ph. Ghosez, M. Giantomassi
- S. Goedecker, D.R. Hamann, P. Hermet, F. Jollet, G. Jomard, S. Leroux, M. Mancini, S. Mazevet,
- M.J.T. Oliveira, G. Onida, Y. Pouillon, T. Rangel, G.-M. Rignanese, D. Sangalli, R. Shaltaf,
- M. Torrent, M.J. Verstraete, G. Zerah, J.W. Zwanziger
- Comment: the third generic paper describing the ABINIT project.
- Note that a version of this paper, that is not formatted for Computer Phys. Comm. 
- is available at https://www.abinit.org/sites/default/files/ABINIT_CPC_v10.pdf .
- The licence allows the authors to put it on the Web.
- DOI and bibtex: see https://docs.abinit.org/theory/bibliography/#gonze2009
 Proc.   0 individual time (sec): cpu=         43.4  wall=         45.8

 Calculation completed.
.Delivered   5 WARNINGs and   5 COMMENTs to log file.

--- !FinalSummary
program: abinit
version: 9.6.2
start_datetime: Wed Dec 14 22:20:05 2022
end_datetime: Wed Dec 14 22:20:50 2022
overall_cpu_time:          43.4
overall_wall_time:          45.8
exit_requested_by_user: no 
timelimit: 0
pseudos: 
    Mo  : 228091cb5782e08cb8d68936b3c7e57b
    S   : bfa270bf1631b0df1a1d98e9ab044d60
usepaw: 0
mpi_procs: 1
omp_threads: 1
num_warnings: 5
num_comments: 5
...
