
.Version 9.6.2 of ABINIT 
.(MPI version, prepared for a x86_64_linux_gnu11.2 computer) 

.Copyright (C) 1998-2021 ABINIT group . 
 ABINIT comes with ABSOLUTELY NO WARRANTY.
 It is free software, and you are welcome to redistribute it
 under certain conditions (GNU General Public License,
 see ~abinit/COPYING or http://www.gnu.org/copyleft/gpl.txt).

 ABINIT is a project of the Universite Catholique de Louvain,
 Corning Inc. and other collaborators, see ~abinit/doc/developers/contributors.txt .
 Please read https://docs.abinit.org/theory/acknowledgments for suggested
 acknowledgments of the ABINIT effort.
 For more information, see https://www.abinit.org .

.Starting date : Sat 12 Nov 2022.
- ( at 09h47 )
  
- input  file    -> tbase
- output file    -> tbase.abo
- root for input  files -> i
- root for output files -> o


 Symmetries : space group P-6 m 2 (#187); Bravais hP (primitive hexag.)
================================================================================
 Values of the parameters that define the memory need of the present run
     intxc =       0    ionmov =       0      iscf =       7    lmnmax =       6
     lnmax =       6     mgfft =     135  mpssoang =       3    mqgrid =    6638
     natom =       3  nloc_mem =       1    nspden =       1   nspinor =       1
    nsppol =       1      nsym =      12    n1xccc =    2501    ntypat =       2
    occopt =       1   xclevel =       2
-    mband =          14        mffmem =           1         mkmem =           1
       mpw =        2194          nfft =       98415          nkpt =           1
================================================================================
P This job should need less than                      34.059 Mbytes of memory.
  Rough estimation (10% accuracy) of disk space for files :
_ WF disk file :      0.471 Mbytes ; DEN or POT disk file :      0.753 Mbytes.
================================================================================

--------------------------------------------------------------------------------
------------- Echo of variables that govern the present computation ------------
--------------------------------------------------------------------------------
-
- outvars: echo of selected default values                                      
-   iomode0 =  0 , fftalg0 =112 , wfoptalg0 =  0
-
- outvars: echo of global parameters not present in the input file              
-  max_nthreads =    0
-
 -outvars: echo values of preprocessed input variables --------
            acell      6.0300000000E+00  6.0300000000E+00  3.2970000000E+01 Bohr
              amu      9.59400000E+01  3.20660000E+01
           diemac      2.00000000E+00
             ecut      2.00000000E+01 Hartree
-          fftalg         112
           istwfk        2
              ixc          11
           kptopt           0
P           mkmem           1
            natom           3
            nband          14
            ngfft          27      27     135
             nkpt           1
             nsym          12
           ntypat           2
              occ      2.000000  2.000000  2.000000  2.000000  2.000000  2.000000
                       2.000000  2.000000  2.000000  2.000000  2.000000  2.000000
                       2.000000  0.000000
            rprim      8.6602540378E-01 -5.0000000000E-01  0.0000000000E+00
                       8.6602540378E-01  5.0000000000E-01  0.0000000000E+00
                       0.0000000000E+00  0.0000000000E+00  1.0000000000E+00
          spgroup         187
           symrel      1  0  0   0  1  0   0  0  1       1 -1  0   0 -1  0   0  0 -1
                       0 -1  0   1 -1  0   0  0 -1      -1  0  0  -1  1  0   0  0  1
                      -1  1  0  -1  0  0   0  0  1       0  1  0   1  0  0   0  0 -1
                       1  0  0   0  1  0   0  0 -1       1 -1  0   0 -1  0   0  0  1
                       0 -1  0   1 -1  0   0  0  1      -1  0  0  -1  1  0   0  0 -1
                      -1  1  0  -1  0  0   0  0 -1       0  1  0   1  0  0   0  0  1
           toldfe      1.00000000E-06 Hartree
            typat      1  2  2
           xangst      0.0000000000E+00  0.0000000000E+00  0.0000000000E+00
                       1.8422892411E+00  0.0000000000E+00 -1.7098033116E+00
                       1.8422892411E+00  0.0000000000E+00  1.7098033116E+00
            xcart      0.0000000000E+00  0.0000000000E+00  0.0000000000E+00
                       3.4814221232E+00  0.0000000000E+00 -3.2310600000E+00
                       3.4814221232E+00  0.0000000000E+00  3.2310600000E+00
             xred      0.0000000000E+00  0.0000000000E+00  0.0000000000E+00
                       3.3333333333E-01  3.3333333333E-01 -9.8000000000E-02
                       3.3333333333E-01  3.3333333333E-01  9.8000000000E-02
            znucl       42.00000   16.00000

================================================================================

 chkinp: Checking input parameters for consistency.

================================================================================
== DATASET  1 ==================================================================
-   mpi_nproc: 1, omp_nthreads: -1 (-1 if OMP is not activated)


--- !DatasetInfo
iteration_state: {dtset: 1, }
dimensions: {natom: 3, nkpt: 1, mband: 14, nsppol: 1, nspinor: 1, nspden: 1, mpw: 2194, }
cutoff_energies: {ecut:  20.0, pawecutdg:  -1.0, }
electrons: {nelect:   2.60000000E+01, charge:   0.00000000E+00, occopt:   1.00000000E+00, tsmear:   1.00000000E-02, }
meta: {optdriver: 0, ionmov: 0, optcell: 0, iscf: 7, paral_kgb: 0, }
...

 Exchange-correlation functional for the present dataset will be:
  GGA: Perdew-Burke-Ernzerhof functional - ixc=11
 Citation for XC functional:
  J.P.Perdew, K.Burke, M.Ernzerhof, PRL 77, 3865 (1996)

 Real(R)+Recip(G) space primitive vectors, cartesian coordinates (Bohr,Bohr^-1):
 R(1)=  5.2221332 -3.0150000  0.0000000  G(1)=  0.0957463 -0.1658375  0.0000000
 R(2)=  5.2221332  3.0150000  0.0000000  G(2)=  0.0957463  0.1658375  0.0000000
 R(3)=  0.0000000  0.0000000 32.9700000  G(3)=  0.0000000  0.0000000  0.0303306
 Unit cell volume ucvol=  1.0382076E+03 bohr^3
 Angles (23,13,12)=  9.00000000E+01  9.00000000E+01  6.00000000E+01 degrees

 getcut: wavevector=  0.0000  0.0000  0.0000  ngfft=  27  27 135
         ecut(hartree)=     20.000   => boxcut(ratio)=   2.01886

--- Pseudopotential description ------------------------------------------------
- pspini: atom type   1  psp file is Mo.psp8
- pspatm: opening atomic psp file    Mo.psp8
- Mo    ONCVPSP-3.2.3.1  r_core=   1.45541   1.45541   1.35488
- 42.00000  14.00000    170510                znucl, zion, pspdat
    8   11    2    4       600   0.00000      pspcod,pspxc,lmax,lloc,mmax,r2well
    5.99000000000000    3.00000000000000    0.00000000000000   rchrg,fchrg,qchrg
     nproj     2     2     2
     extension_switch     1
  pspatm : epsatm=   15.95693586
         --- l  ekb(1:nproj) -->
             0   13.833287    1.350687
             1    8.015347    1.134034
             2    2.765699    0.969071
 pspatm: atomic psp has been read  and splines computed

- pspini: atom type   2  psp file is S.psp8
- pspatm: opening atomic psp file    S.psp8
- S     ONCVPSP-3.2.3.1  r_core=   1.45376   1.45376   1.61851
- 16.00000   6.00000    170504                znucl, zion, pspdat
    8   11    2    4       600   0.00000      pspcod,pspxc,lmax,lloc,mmax,r2well
    5.99000000000000    6.00000000000000    0.00000000000000   rchrg,fchrg,qchrg
     nproj     2     2     2
     extension_switch     1
  pspatm : epsatm=    9.01821879
         --- l  ekb(1:nproj) -->
             0    6.763951    0.574108
             1    3.227080    0.887329
             2   -3.547662   -0.986524
 pspatm: atomic psp has been read  and splines computed

   8.83827710E+02                                ecore*ucvol(ha*bohr**3)
--------------------------------------------------------------------------------

_setup2: Arith. and geom. avg. npw (full set) are    4387.000    4387.000

================================================================================

--- !BeginCycle
iteration_state: {dtset: 1, }
solver: {iscf: 7, nstep: 30, nline: 4, wfoptalg: 0, }
tolerances: {toldfe: 1.00E-06, }
...

     iter   Etot(hartree)      deltaE(h)  residm     vres2
 ETOT  1  -91.721058849940    -9.172E+01 3.742E-02 1.203E+03
 ETOT  2  -86.947271545860     4.774E+00 2.074E-03 4.591E+04
 ETOT  3  -91.796098306556    -4.849E+00 7.863E-03 2.166E+03
 ETOT  4  -92.038888237495    -2.428E-01 1.459E-03 6.952E+01
 ETOT  5  -92.051775654810    -1.289E-02 8.738E-05 4.304E+00
 ETOT  6  -92.052387127005    -6.115E-04 3.302E-05 1.713E+00
 ETOT  7  -92.051919013229     4.681E-04 2.360E-05 5.945E+00
 ETOT  8  -92.052443942834    -5.249E-04 1.304E-05 7.369E-02
 ETOT  9  -92.052455362270    -1.142E-05 1.288E-05 1.541E-02
 ETOT 10  -92.052455517673    -1.554E-07 9.100E-06 3.609E-03
 ETOT 11  -92.052456079351    -5.617E-07 8.106E-06 2.035E-04

 At SCF step   11, etot is converged : 
  for the second time, diff in etot=  5.617E-07 < toldfe=  1.000E-06

 Cartesian components of stress tensor (hartree/bohr^3)
  sigma(1 1)= -9.82138971E-05  sigma(3 2)=  0.00000000E+00
  sigma(2 2)= -9.82138971E-05  sigma(3 1)=  0.00000000E+00
  sigma(3 3)=  7.24019255E-04  sigma(2 1)=  0.00000000E+00


--- !ResultsGS
iteration_state: {dtset: 1, }
comment   : Summary of ground state results
lattice_vectors:
- [  5.2221332,  -3.0150000,   0.0000000, ]
- [  5.2221332,   3.0150000,   0.0000000, ]
- [  0.0000000,   0.0000000,  32.9700000, ]
lattice_lengths: [   6.03000,    6.03000,   32.97000, ]
lattice_angles: [ 90.000,  90.000,  60.000, ] # degrees, (23, 13, 12)
lattice_volume:   1.0382076E+03
convergence: {deltae: -5.617E-07, res2:  2.035E-04, residm:  8.106E-06, diffor: null, }
etotal    :  -9.20524561E+01
entropy   :   0.00000000E+00
fermie    :  -5.63718031E-02
cartesian_stress_tensor: # hartree/bohr^3
- [ -9.82138971E-05,   0.00000000E+00,   0.00000000E+00, ]
- [  0.00000000E+00,  -9.82138971E-05,   0.00000000E+00, ]
- [  0.00000000E+00,   0.00000000E+00,   7.24019255E-04, ]
pressure_GPa:  -5.1741E+00
xred      :
- [  0.0000E+00,   0.0000E+00,   0.0000E+00, Mo]
- [  3.3333E-01,   3.3333E-01,  -9.8000E-02,  S]
- [  3.3333E-01,   3.3333E-01,   9.8000E-02,  S]
cartesian_forces: # hartree/bohr
- [ -0.00000000E+00,  -0.00000000E+00,  -4.62592927E-18, ]
- [ -1.64998946E-27,  -8.57359673E-27,   7.38868284E-02, ]
- [  1.64998946E-27,   8.57359673E-27,  -7.38868284E-02, ]
force_length_stats: {min:   4.62592927E-18, max:   7.38868284E-02, mean:   4.92578856E-02, }
...

 Integrated electronic density in atomic spheres:
 ------------------------------------------------
 Atom  Sphere_radius  Integrated_density
    1        2.00000         10.65144767
    2        2.00000          3.89056621
    3        2.00000          3.89056621
================================================================================

 ----iterations are completed or convergence reached----

 Mean square residual over all n,k,spin=   57.988E-08; max=  81.064E-07
 reduced coordinates (array xred) for    3 atoms
       0.000000000000      0.000000000000      0.000000000000
       0.333333333333      0.333333333333     -0.098000000000
       0.333333333333      0.333333333333      0.098000000000
 rms dE/dt=  1.1484E+00; max dE/dt=  2.4360E+00; dE/dt below (all hartree)
    1       0.000000000000      0.000000000000      0.000000000000
    2      -0.000000000000      0.000000000000     -2.436048733159
    3       0.000000000000     -0.000000000000      2.436048733159

 cartesian coordinates (angstrom) at end:
    1      0.00000000000000     0.00000000000000     0.00000000000000
    2      1.84228924108556     0.00000000000000    -1.70980331158681
    3      1.84228924108556     0.00000000000000     1.70980331158681

 cartesian forces (hartree/bohr) at end:
    1     -0.00000000000000    -0.00000000000000    -0.00000000000000
    2     -0.00000000000000    -0.00000000000000     0.07388682842458
    3      0.00000000000000     0.00000000000000    -0.07388682842458
 frms,max,avg= 3.4830585E-02 7.3886828E-02   0.000E+00  0.000E+00  0.000E+00 h/b

 cartesian forces (eV/Angstrom) at end:
    1     -0.00000000000000    -0.00000000000000    -0.00000000000000
    2     -0.00000000000000    -0.00000000000000     3.79941316032198
    3      0.00000000000000     0.00000000000000    -3.79941316032198
 frms,max,avg= 1.7910605E+00 3.7994132E+00   0.000E+00  0.000E+00  0.000E+00 e/A
 length scales=  6.030000000000  6.030000000000 32.970000000000 bohr
              =  3.190938567798  3.190938567798 17.446972567212 angstroms
 prteigrs : about to open file o_EIG
 Fermi (or HOMO) energy (hartree) =  -0.05637   Average Vxc (hartree)=  -0.17159
 Eigenvalues (hartree) for nkpt=   1  k points:
 kpt#   1, nband= 14, wtk=  1.00000, kpt=  0.0000  0.0000  0.0000 (reduced coord)
  -2.23960   -1.28725   -1.28626   -1.28626   -0.57505   -0.54719   -0.24353   -0.14139
  -0.11637   -0.11637   -0.09145   -0.09145   -0.05637    0.03322

--- !EnergyTerms
iteration_state     : {dtset: 1, }
comment             : Components of total free energy in Hartree
kinetic             :  3.03055306779939E+01
hartree             :  2.17192752100111E+02
xc                  : -1.66501106524689E+01
Ewald energy        :  1.40344379166645E+02
psp_core            :  8.51301522853731E-01
local_psp           : -4.75651893380744E+02
non_local_psp       :  1.15555844862587E+01
total_energy        : -9.20524560793512E+01
total_energy_eV     : -2.50487471763102E+03
band_energy         : -1.61570910649795E+01
...


 Cartesian components of stress tensor (hartree/bohr^3)
  sigma(1 1)= -9.82138971E-05  sigma(3 2)=  0.00000000E+00
  sigma(2 2)= -9.82138971E-05  sigma(3 1)=  0.00000000E+00
  sigma(3 3)=  7.24019255E-04  sigma(2 1)=  0.00000000E+00

-Cartesian components of stress tensor (GPa)         [Pressure= -5.1741E+00 GPa]
- sigma(1 1)= -2.88955213E+00  sigma(3 2)=  0.00000000E+00
- sigma(2 2)= -2.88955213E+00  sigma(3 1)=  0.00000000E+00
- sigma(3 3)=  2.13013783E+01  sigma(2 1)=  0.00000000E+00

== END DATASET(S) ==============================================================
================================================================================
  
 -outvars: echo values of variables after computation  --------
            acell      6.0300000000E+00  6.0300000000E+00  3.2970000000E+01 Bohr
              amu      9.59400000E+01  3.20660000E+01
           diemac      2.00000000E+00
             ecut      2.00000000E+01 Hartree
           etotal     -9.2052456079E+01
            fcart     -0.0000000000E+00 -0.0000000000E+00 -4.6259292693E-18
                      -1.6499894601E-27 -8.5735967304E-27  7.3886828425E-02
                       1.6499894601E-27  8.5735967304E-27 -7.3886828425E-02
-          fftalg         112
           istwfk        2
              ixc          11
           kptopt           0
P           mkmem           1
            natom           3
            nband          14
            ngfft          27      27     135
             nkpt           1
             nsym          12
           ntypat           2
              occ      2.000000  2.000000  2.000000  2.000000  2.000000  2.000000
                       2.000000  2.000000  2.000000  2.000000  2.000000  2.000000
                       2.000000  0.000000
            rprim      8.6602540378E-01 -5.0000000000E-01  0.0000000000E+00
                       8.6602540378E-01  5.0000000000E-01  0.0000000000E+00
                       0.0000000000E+00  0.0000000000E+00  1.0000000000E+00
          spgroup         187
           strten     -9.8213897113E-05 -9.8213897113E-05  7.2401925468E-04
                       0.0000000000E+00  0.0000000000E+00  0.0000000000E+00
           symrel      1  0  0   0  1  0   0  0  1       1 -1  0   0 -1  0   0  0 -1
                       0 -1  0   1 -1  0   0  0 -1      -1  0  0  -1  1  0   0  0  1
                      -1  1  0  -1  0  0   0  0  1       0  1  0   1  0  0   0  0 -1
                       1  0  0   0  1  0   0  0 -1       1 -1  0   0 -1  0   0  0  1
                       0 -1  0   1 -1  0   0  0  1      -1  0  0  -1  1  0   0  0 -1
                      -1  1  0  -1  0  0   0  0 -1       0  1  0   1  0  0   0  0  1
           toldfe      1.00000000E-06 Hartree
            typat      1  2  2
           xangst      0.0000000000E+00  0.0000000000E+00  0.0000000000E+00
                       1.8422892411E+00  0.0000000000E+00 -1.7098033116E+00
                       1.8422892411E+00  0.0000000000E+00  1.7098033116E+00
            xcart      0.0000000000E+00  0.0000000000E+00  0.0000000000E+00
                       3.4814221232E+00  0.0000000000E+00 -3.2310600000E+00
                       3.4814221232E+00  0.0000000000E+00  3.2310600000E+00
             xred      0.0000000000E+00  0.0000000000E+00  0.0000000000E+00
                       3.3333333333E-01  3.3333333333E-01 -9.8000000000E-02
                       3.3333333333E-01  3.3333333333E-01  9.8000000000E-02
            znucl       42.00000   16.00000

================================================================================


- Timing analysis has been suppressed with timopt=0



================================================================================

 Suggested references for the acknowledgment of ABINIT usage.

 The users of ABINIT have little formal obligations with respect to the ABINIT group
 (those specified in the GNU General Public License, http://www.gnu.org/copyleft/gpl.txt).
 However, it is common practice in the scientific literature,
 to acknowledge the efforts of people that have made the research possible.
 In this spirit, please find below suggested citations of work written by ABINIT developers,
 corresponding to implementations inside of ABINIT that you have used in the present run.
 Note also that it will be of great value to readers of publications presenting these results,
 to read papers enabling them to understand the theoretical formalism and details
 of the ABINIT implementation.
 For information on why they are suggested, see also https://docs.abinit.org/theory/acknowledgments.
-
- [1] The Abinit project: Impact, environment and recent developments.
- Computer Phys. Comm. 248, 107042 (2020).
- X.Gonze, B. Amadon, G. Antonius, F.Arnardi, L.Baguet, J.-M.Beuken,
- J.Bieder, F.Bottin, J.Bouchet, E.Bousquet, N.Brouwer, F.Bruneval,
- G.Brunin, T.Cavignac, J.-B. Charraud, Wei Chen, M.Cote, S.Cottenier,
- J.Denier, G.Geneste, Ph.Ghosez, M.Giantomassi, Y.Gillet, O.Gingras,
- D.R.Hamann, G.Hautier, Xu He, N.Helbig, N.Holzwarth, Y.Jia, F.Jollet,
- W.Lafargue-Dit-Hauret, K.Lejaeghere, M.A.L.Marques, A.Martin, C.Martins,
- H.P.C. Miranda, F.Naccarato, K. Persson, G.Petretto, V.Planes, Y.Pouillon,
- S.Prokhorenko, F.Ricci, G.-M.Rignanese, A.H.Romero, M.M.Schmitt, M.Torrent,
- M.J.van Setten, B.Van Troeye, M.J.Verstraete, G.Zerah and J.W.Zwanzig
- Comment: the fifth generic paper describing the ABINIT project.
- Note that a version of this paper, that is not formatted for Computer Phys. Comm. 
- is available at https://www.abinit.org/sites/default/files/ABINIT20.pdf .
- The licence allows the authors to put it on the Web.
- DOI and bibtex: see https://docs.abinit.org/theory/bibliography/#gonze2020
-
- [2] Optimized norm-conserving Vanderbilt pseudopotentials.
- D.R. Hamann, Phys. Rev. B 88, 085117 (2013).
- Comment: Some pseudopotential generated using the ONCVPSP code were used.
- DOI and bibtex: see https://docs.abinit.org/theory/bibliography/#hamann2013
-
- [3] ABINIT: Overview, and focus on selected capabilities
- J. Chem. Phys. 152, 124102 (2020).
- A. Romero, D.C. Allan, B. Amadon, G. Antonius, T. Applencourt, L.Baguet,
- J.Bieder, F.Bottin, J.Bouchet, E.Bousquet, F.Bruneval,
- G.Brunin, D.Caliste, M.Cote,
- J.Denier, C. Dreyer, Ph.Ghosez, M.Giantomassi, Y.Gillet, O.Gingras,
- D.R.Hamann, G.Hautier, F.Jollet, G. Jomard,
- A.Martin, 
- H.P.C. Miranda, F.Naccarato, G.Petretto, N.A. Pike, V.Planes,
- S.Prokhorenko, T. Rangel, F.Ricci, G.-M.Rignanese, M.Royo, M.Stengel, M.Torrent,
- M.J.van Setten, B.Van Troeye, M.J.Verstraete, J.Wiktor, J.W.Zwanziger, and X.Gonze.
- Comment: a global overview of ABINIT, with focus on selected capabilities .
- Note that a version of this paper, that is not formatted for J. Chem. Phys 
- is available at https://www.abinit.org/sites/default/files/ABINIT20_JPC.pdf .
- The licence allows the authors to put it on the Web.
- DOI and bibtex: see https://docs.abinit.org/theory/bibliography/#romero2020
-
- [4] Recent developments in the ABINIT software package.
- Computer Phys. Comm. 205, 106 (2016).
- X.Gonze, F.Jollet, F.Abreu Araujo, D.Adams, B.Amadon, T.Applencourt,
- C.Audouze, J.-M.Beuken, J.Bieder, A.Bokhanchuk, E.Bousquet, F.Bruneval
- D.Caliste, M.Cote, F.Dahm, F.Da Pieve, M.Delaveau, M.Di Gennaro,
- B.Dorado, C.Espejo, G.Geneste, L.Genovese, A.Gerossier, M.Giantomassi,
- Y.Gillet, D.R.Hamann, L.He, G.Jomard, J.Laflamme Janssen, S.Le Roux,
- A.Levitt, A.Lherbier, F.Liu, I.Lukacevic, A.Martin, C.Martins,
- M.J.T.Oliveira, S.Ponce, Y.Pouillon, T.Rangel, G.-M.Rignanese,
- A.H.Romero, B.Rousseau, O.Rubel, A.A.Shukri, M.Stankovski, M.Torrent,
- M.J.Van Setten, B.Van Troeye, M.J.Verstraete, D.Waroquier, J.Wiktor,
- B.Xu, A.Zhou, J.W.Zwanziger.
- Comment: the fourth generic paper describing the ABINIT project.
- Note that a version of this paper, that is not formatted for Computer Phys. Comm. 
- is available at https://www.abinit.org/sites/default/files/ABINIT16.pdf .
- The licence allows the authors to put it on the Web.
- DOI and bibtex: see https://docs.abinit.org/theory/bibliography/#gonze2016
-
- And optionally:
-
- [5] ABINIT: First-principles approach of materials and nanosystem properties.
- Computer Phys. Comm. 180, 2582-2615 (2009).
- X. Gonze, B. Amadon, P.-M. Anglade, J.-M. Beuken, F. Bottin, P. Boulanger, F. Bruneval,
- D. Caliste, R. Caracas, M. Cote, T. Deutsch, L. Genovese, Ph. Ghosez, M. Giantomassi
- S. Goedecker, D.R. Hamann, P. Hermet, F. Jollet, G. Jomard, S. Leroux, M. Mancini, S. Mazevet,
- M.J.T. Oliveira, G. Onida, Y. Pouillon, T. Rangel, G.-M. Rignanese, D. Sangalli, R. Shaltaf,
- M. Torrent, M.J. Verstraete, G. Zerah, J.W. Zwanziger
- Comment: the third generic paper describing the ABINIT project.
- Note that a version of this paper, that is not formatted for Computer Phys. Comm. 
- is available at https://www.abinit.org/sites/default/files/ABINIT_CPC_v10.pdf .
- The licence allows the authors to put it on the Web.
- DOI and bibtex: see https://docs.abinit.org/theory/bibliography/#gonze2009
-
- Proc.   0 individual time (sec): cpu=          3.8  wall=          4.1

================================================================================

 Calculation completed.
.Delivered   1 WARNINGs and   2 COMMENTs to log file.
+Overall time at end (sec) : cpu=          3.8  wall=          4.1
