  ABINIT 9.6.2
  
-instrng: 105 lines of input have been read from file mommat


.Version 9.6.2 of ABINIT 
.(MPI version, prepared for a x86_64_linux_gnu11.2 computer) 

.Copyright (C) 1998-2021 ABINIT group . 
 ABINIT comes with ABSOLUTELY NO WARRANTY.
 It is free software, and you are welcome to redistribute it
 under certain conditions (GNU General Public License,
 see ~abinit/COPYING or http://www.gnu.org/copyleft/gpl.txt).

 ABINIT is a project of the Universite Catholique de Louvain,
 Corning Inc. and other collaborators, see ~abinit/doc/developers/contributors.txt .
 Please read https://docs.abinit.org/theory/acknowledgments for suggested
 acknowledgments of the ABINIT effort.
 For more information, see https://www.abinit.org .

.Starting date : Thu 15 Dec 2022.
- ( at 09h21 )
  

 ++++++++++++++++++++++++++++++++++++++++++++++++++++++++++++++++++++++++++++++

 === Build Information === 
  Version       : 9.6.2
  Build target  : x86_64_linux_gnu11.2
  Build date    : 20220106

 === Compiler Suite === 
  C compiler       : gnu11.2
  C++ compiler     : gnu11.2
  Fortran compiler : gnu11.2
  CFLAGS           : -g -O2 -ffile-prefix-map=/build/abinit-GxX7li/abinit-9.6.2=. -fstack-protector-strong -Wformat -Werror=format-security
  CXXFLAGS         : -g -O2 -ffile-prefix-map=/build/abinit-GxX7li/abinit-9.6.2=. -fstack-protector-strong -Wformat -Werror=format-security
  FCFLAGS          : -g -O2 -ffile-prefix-map=/build/abinit-GxX7li/abinit-9.6.2=. -fstac ...
  FC_LDFLAGS       : 

 === Optimizations === 
  Debug level        : basic
  Optimization level : standard
  Architecture       : intel_xeon

 === Multicore === 
  Parallel build : 
  Parallel I/O   : 
  openMP support : 
  GPU support    : 

 === Connectors / Fallbacks === 
  LINALG flavor  : netlib
  FFT flavor     : goedecker
  HDF5           : yes
  NetCDF         : yes
  NetCDF Fortran : yes
  LibXC          : yes
  Wannier90      : no

 === Experimental features === 
  Exports             : 
  GW double-precision : 

 ++++++++++++++++++++++++++++++++++++++++++++++++++++++++++++++++++++++++++++++


 ++++++++++++++++++++++++++++++++++++++++++++++++++++++++++++++++++++++++++++++
 Default optimizations:
   --- None ---


 ++++++++++++++++++++++++++++++++++++++++++++++++++++++++++++++++++++++++++++++


 ++++++++++++++++++++++++++++++++++++++++++++++++++++++++++++++++++++++++++++++
 CPP options activated during the build:

                    CC_GNU                   CXX_GNU                    FC_GNU
 
 HAVE_FC_ALLOCATABLE_DT...             HAVE_FC_ASYNC         HAVE_FC_BACKTRACE
 
  HAVE_FC_COMMAND_ARGUMENT      HAVE_FC_COMMAND_LINE        HAVE_FC_CONTIGUOUS
 
           HAVE_FC_CPUTIME              HAVE_FC_EXIT             HAVE_FC_FLUSH
 
             HAVE_FC_GAMMA            HAVE_FC_GETENV   HAVE_FC_IEEE_ARITHMETIC
 
   HAVE_FC_IEEE_EXCEPTIONS          HAVE_FC_INT_QUAD             HAVE_FC_IOMSG
 
     HAVE_FC_ISO_C_BINDING  HAVE_FC_ISO_FORTRAN_2008        HAVE_FC_LONG_LINES
 
        HAVE_FC_MOVE_ALLOC  HAVE_FC_ON_THE_FLY_SHAPE           HAVE_FC_PRIVATE
 
         HAVE_FC_PROTECTED           HAVE_FC_SHIFTLR         HAVE_FC_STREAM_IO
 
            HAVE_FC_SYSTEM          HAVE_FORTRAN2003                 HAVE_HDF5
 
        HAVE_LIBPAW_ABINIT      HAVE_LIBTETRA_ABINIT                HAVE_LIBXC
 
                  HAVE_MPI                 HAVE_MPI2       HAVE_MPI_IALLGATHER
 
       HAVE_MPI_IALLREDUCE        HAVE_MPI_IALLTOALL       HAVE_MPI_IALLTOALLV
 
           HAVE_MPI_IBCAST         HAVE_MPI_IGATHERV        HAVE_MPI_INTEGER16
 
               HAVE_MPI_IO HAVE_MPI_TYPE_CREATE_S...               HAVE_NETCDF
 
       HAVE_NETCDF_FORTRAN                HAVE_NUMPY             HAVE_OS_LINUX
 
         HAVE_TIMER_ABINIT                                                      
 ++++++++++++++++++++++++++++++++++++++++++++++++++++++++++++++++++++++++++++++

- input  file    -> mommat
- output file    -> mommat.abo
- root for input  files -> i
- root for output files -> o

-instrng: 105 lines of input have been read from file mommat

 For atom type 1, psp file is Mo.psp8
 For atom type 2, psp file is S.psp8
  read the values zionpsp= 14.0 , pspcod=   8 , lmax=   2
  read the values zionpsp=  6.0 , pspcod=   8 , lmax=   2

 inpspheads: deduce mpsang = 3, n1xccc = 2501.

======================================================= 
 invars1m : enter jdtset= 1

 symlatt: the Bravais lattice is aP (primitive triclinic)
  xred   is defined in input file
 ingeo: takes atomic coordinates from input array xred

--- !COMMENT
src_file: m_ingeo.F90
src_line: 900
message: |
    The tolerance on symmetries =   1.000E-05 is bigger than 1.0e-8.
    In order to avoid spurious effects, the atomic coordinates have been
    symmetrized before storing them in the dataset internal variable.
    So, do not be surprised by the fact that your input variables (xcart, xred, ...)
    do not correspond exactly to the ones echoed by ABINIT, the latter being used to do the calculations.
    This is not a problem per se.
    Still, in order to avoid this symmetrization (e.g. for specific debugging/development), decrease tolsym to 1.0e-8 or lower,
    or (much preferred) use input primitive vectors that are accurate to better than 1.0e-8.
    This message will only be printed once, even if there are other datasets where tolsym is bigger than 1.0e-8.
...


 symlatt: the Bravais lattice is aP (primitive triclinic)

 symlatt: the Bravais lattice is aP (primitive triclinic)
 symspgr: spgroup=   1  P1   (=C1^1)

======================================================= 
 invars1m : enter jdtset= 2

 symlatt: the Bravais lattice is aP (primitive triclinic)
  xred   is defined in input file
 ingeo: takes atomic coordinates from input array xred

 symlatt: the Bravais lattice is aP (primitive triclinic)

 symlatt: the Bravais lattice is aP (primitive triclinic)
 symspgr: spgroup=   1  P1   (=C1^1)

======================================================= 
 invars1m : enter jdtset= 3

 symlatt: the Bravais lattice is aP (primitive triclinic)
  xred   is defined in input file
 ingeo: takes atomic coordinates from input array xred

 symlatt: the Bravais lattice is aP (primitive triclinic)

 symlatt: the Bravais lattice is aP (primitive triclinic)
 symspgr: spgroup=   1  P1   (=C1^1)

======================================================= 
 invars1m : enter jdtset= 4

 symlatt: the Bravais lattice is aP (primitive triclinic)
  xred   is defined in input file
 ingeo: takes atomic coordinates from input array xred

 symlatt: the Bravais lattice is aP (primitive triclinic)

 symlatt: the Bravais lattice is aP (primitive triclinic)
 symspgr: spgroup=   1  P1   (=C1^1)

======================================================= 
 invars1m : enter jdtset= 5

 symlatt: the Bravais lattice is aP (primitive triclinic)
  xred   is defined in input file
 ingeo: takes atomic coordinates from input array xred

 symlatt: the Bravais lattice is aP (primitive triclinic)

 symlatt: the Bravais lattice is aP (primitive triclinic)
 symspgr: spgroup=   1  P1   (=C1^1)

======================================================= 
 invars1m : enter jdtset= 6

 symlatt: the Bravais lattice is aP (primitive triclinic)
  xred   is defined in input file
 ingeo: takes atomic coordinates from input array xred

 symlatt: the Bravais lattice is aP (primitive triclinic)

 symlatt: the Bravais lattice is aP (primitive triclinic)
 symspgr: spgroup=   1  P1   (=C1^1)
 For input ecut=  2.000000E+01 best grid ngfft=      18      18      96
       max ecut=  2.100150E+01

 ==== FFT mesh ====
  FFT mesh divisions ........................    18   18   96
  Augmented FFT divisions ...................    19   19   96
  FFT algorithm .............................   112
  FFT cache size ............................    16
 getmpw: optimal value of mpw= 1314
 For input ecut=  2.000000E+01 best grid ngfft=      18      18      96
       max ecut=  2.100150E+01

 ==== FFT mesh ====
  FFT mesh divisions ........................    18   18   96
  Augmented FFT divisions ...................    19   19   96
  FFT algorithm .............................   112
  FFT cache size ............................    16
 getmpw: optimal value of mpw= 1314
 For input ecut=  2.000000E+01 best grid ngfft=      18      18      96
       max ecut=  2.100150E+01

 ==== FFT mesh ====
  FFT mesh divisions ........................    18   18   96
  Augmented FFT divisions ...................    19   19   96
  FFT algorithm .............................   112
  FFT cache size ............................    16
 getmpw: optimal value of mpw= 1314
 For input ecut=  2.000000E+01 best grid ngfft=      18      18      96
       max ecut=  2.100150E+01

 ==== FFT mesh ====
  FFT mesh divisions ........................    18   18   96
  Augmented FFT divisions ...................    19   19   96
  FFT algorithm .............................   112
  FFT cache size ............................    16
 getmpw: optimal value of mpw= 1314
 getmpw: optimal value of mpw= 1314
 For input ecut=  2.000000E+01 best grid ngfft=      18      18      96
       max ecut=  2.100150E+01

 ==== FFT mesh ====
  FFT mesh divisions ........................    18   18   96
  Augmented FFT divisions ...................    19   19   96
  FFT algorithm .............................   112
  FFT cache size ............................    16
 getmpw: optimal value of mpw= 1314
 getmpw: optimal value of mpw= 1314
 For input ecut=  2.000000E+01 best grid ngfft=      18      18      96
       max ecut=  2.100150E+01

 ==== FFT mesh ====
  FFT mesh divisions ........................    18   18   96
  Augmented FFT divisions ...................    19   19   96
  FFT algorithm .............................   112
  FFT cache size ............................    16
 getmpw: optimal value of mpw= 1314
 getmpw: optimal value of mpw= 1314

 DATASET    1 : space group P1 (#  1); Bravais aP (primitive triclinic)

 getdim_nloc : deduce lmnmax  =  18, lnmax  =   6,
                      lmnmaxso=  18, lnmaxso=   6.
memory: analysis of memory needs
================================================================================
 Values of the parameters that define the memory need for DATASET  1.
     intxc =       0    ionmov =       0      iscf =       7    lmnmax =       6
     lnmax =       6     mgfft =      96  mpssoang =       3    mqgrid =    3833
     natom =       3  nloc_mem =       1    nspden =       1   nspinor =       1
    nsppol =       1      nsym =       1    n1xccc =    2501    ntypat =       2
    occopt =       1   xclevel =       2
-    mband =          20        mffmem =           1         mkmem =         128
       mpw =        1314          nfft =       31104          nkpt =         128
================================================================================
P This job should need less than                      64.366 Mbytes of memory.
  Rough estimation (10% accuracy) of disk space for files :
_ WF disk file :     51.330 Mbytes ; DEN or POT disk file :      0.239 Mbytes.
================================================================================

 Biggest array : cg(disk), with     51.3301 MBytes.
 memana : allocated an array of     51.330 Mbytes, for testing purposes.
 memana: allocated      64.366Mbytes, for testing purposes. 
 The job will continue.

 DATASET    2 : space group P1 (#  1); Bravais aP (primitive triclinic)

 getdim_nloc : deduce lmnmax  =  18, lnmax  =   6,
                      lmnmaxso=  18, lnmaxso=   6.
memory: analysis of memory needs
================================================================================
 Values of the parameters that define the memory need for DATASET  2.
     intxc =       0    ionmov =       0      iscf =      -2    lmnmax =       6
     lnmax =       6     mgfft =      96  mpssoang =       3    mqgrid =    3833
     natom =       3  nloc_mem =       1    nspden =       1   nspinor =       1
    nsppol =       1      nsym =       1    n1xccc =    2501    ntypat =       2
    occopt =       1   xclevel =       2
-    mband =          40        mffmem =           1         mkmem =         128
       mpw =        1314          nfft =       31104          nkpt =         128
================================================================================
P This job should need less than                     112.377 Mbytes of memory.
  Rough estimation (10% accuracy) of disk space for files :
_ WF disk file :    102.658 Mbytes ; DEN or POT disk file :      0.239 Mbytes.
================================================================================

 Biggest array : cg(disk), with    102.6583 MBytes.
 memana : allocated an array of    102.658 Mbytes, for testing purposes.
 memana: allocated     112.377Mbytes, for testing purposes. 
 The job will continue.

 DATASET    3 : space group P1 (#  1); Bravais aP (primitive triclinic)

 getdim_nloc : deduce lmnmax  =  18, lnmax  =   6,
                      lmnmaxso=  18, lnmaxso=   6.
memory: analysis of memory needs
================================================================================
 Values of the parameters that define the memory need for DATASET  3.
     intxc =       0    ionmov =       0      iscf =      -2    lmnmax =       6
     lnmax =       6     mgfft =      96  mpssoang =       3    mqgrid =    3833
     natom =       3  nloc_mem =       1    nspden =       1   nspinor =       1
    nsppol =       1      nsym =       1    n1xccc =    2501    ntypat =       2
    occopt =       1   xclevel =       2
-    mband =          40        mffmem =           1         mkmem =         256
       mpw =        1314          nfft =       31104          nkpt =         256
================================================================================
P This job should need less than                     217.857 Mbytes of memory.
  Rough estimation (10% accuracy) of disk space for files :
_ WF disk file :    205.315 Mbytes ; DEN or POT disk file :      0.239 Mbytes.
================================================================================

 Biggest array : cg(disk), with    205.3145 MBytes.
 memana : allocated an array of    205.315 Mbytes, for testing purposes.
 memana: allocated     217.857Mbytes, for testing purposes. 
 The job will continue.

 DATASET    4 : space group P1 (#  1); Bravais aP (primitive triclinic)

 getdim_nloc : deduce lmnmax  =  18, lnmax  =   6,
                      lmnmaxso=  18, lnmaxso=   6.
 memorf : analysis of memory needs
================================================================================
 Values of the parameters that define the memory need for DATASET  4 (RF).
     intxc =       0      iscf =      -3    lmnmax =       6     lnmax =       6
     mgfft =      96  mpssoang =       3    mqgrid =    3833     natom =       3
  nloc_mem =       1    nspden =       1   nspinor =       1    nsppol =       1
      nsym =       1    n1xccc =    2501    ntypat =       2    occopt =       1
   xclevel =       2
-    mband =          40        mffmem =           1         mkmem =         256
-   mkqmem =         256        mk1mem =         256           mpw =        1314
      nfft =       31104          nkpt =         256
================================================================================
P This job should need less than                     638.975 Mbytes of memory.
  Rough estimation (10% accuracy) of disk space for files :
_ WF disk file :    205.315 Mbytes ; DEN or POT disk file :      0.239 Mbytes.
================================================================================

 Biggest array : cg(disk), with    205.3145 MBytes.
 memana : allocated an array of    205.315 Mbytes, for testing purposes.
 memana: allocated     638.975Mbytes, for testing purposes. 
 The job will continue.

 DATASET    5 : space group P1 (#  1); Bravais aP (primitive triclinic)

 getdim_nloc : deduce lmnmax  =  18, lnmax  =   6,
                      lmnmaxso=  18, lnmaxso=   6.
 memorf : analysis of memory needs
================================================================================
 Values of the parameters that define the memory need for DATASET  5 (RF).
     intxc =       0      iscf =      -3    lmnmax =       6     lnmax =       6
     mgfft =      96  mpssoang =       3    mqgrid =    3833     natom =       3
  nloc_mem =       1    nspden =       1   nspinor =       1    nsppol =       1
      nsym =       1    n1xccc =    2501    ntypat =       2    occopt =       1
   xclevel =       2
-    mband =          40        mffmem =           1         mkmem =         256
-   mkqmem =         256        mk1mem =         256           mpw =        1314
      nfft =       31104          nkpt =         256
================================================================================
P This job should need less than                     638.975 Mbytes of memory.
  Rough estimation (10% accuracy) of disk space for files :
_ WF disk file :    205.315 Mbytes ; DEN or POT disk file :      0.239 Mbytes.
================================================================================

 Biggest array : cg(disk), with    205.3145 MBytes.
 memana : allocated an array of    205.315 Mbytes, for testing purposes.
 memana: allocated     638.975Mbytes, for testing purposes. 
 The job will continue.

 DATASET    6 : space group P1 (#  1); Bravais aP (primitive triclinic)

 getdim_nloc : deduce lmnmax  =  18, lnmax  =   6,
                      lmnmaxso=  18, lnmaxso=   6.
 memorf : analysis of memory needs
================================================================================
 Values of the parameters that define the memory need for DATASET  6 (RF).
     intxc =       0      iscf =      -3    lmnmax =       6     lnmax =       6
     mgfft =      96  mpssoang =       3    mqgrid =    3833     natom =       3
  nloc_mem =       1    nspden =       1   nspinor =       1    nsppol =       1
      nsym =       1    n1xccc =    2501    ntypat =       2    occopt =       1
   xclevel =       2
-    mband =          40        mffmem =           1         mkmem =         256
-   mkqmem =         256        mk1mem =         256           mpw =        1314
      nfft =       31104          nkpt =         256
================================================================================
P This job should need less than                     638.975 Mbytes of memory.
  Rough estimation (10% accuracy) of disk space for files :
_ WF disk file :    205.315 Mbytes ; DEN or POT disk file :      0.239 Mbytes.
================================================================================

 Biggest array : cg(disk), with    205.3145 MBytes.
 memana : allocated an array of    205.315 Mbytes, for testing purposes.
 memana: allocated     638.975Mbytes, for testing purposes. 
 The job will continue.
--------------------------------------------------------------------------------
------------- Echo of variables that govern the present computation ------------
--------------------------------------------------------------------------------
-
- outvars: echo of selected default values                                      
-   iomode0 =  0 , fftalg0 =112 , wfoptalg0 =  0
-
- outvars: echo of global parameters not present in the input file              
-  max_nthreads =    0
-
 -outvars: echo values of preprocessed input variables --------
 
 These variables are accessible in NetCDF format (o_OUT.nc)

            acell      6.0300000000E+00  6.0300000000E+00  3.2970000000E+01 Bohr
              amu      9.59400000E+01  3.20660000E+01
           diemac      1.00000000E+01
             ecut      2.00000000E+01 Hartree
-          fftalg         112
           getden1          0
           getden2          1
           getden3          1
           getden4          0
           getden5          0
           getden6          0
           getwfk1          0
           getwfk2          1
           getwfk3          2
           getwfk4          3
           getwfk5          3
           getwfk6          3
             iscf1          7
             iscf2         -2
             iscf3         -2
             iscf4         -3
             iscf5         -3
             iscf6         -3
              ixc          11
           jdtset        1    2    3    4    5    6
              kpt1    -2.50000000E-01 -1.25000000E-01  0.00000000E+00
                      -1.25000000E-01 -1.25000000E-01  1.25000000E-01
                      -1.25000000E-01 -2.50000000E-01  0.00000000E+00
                       5.00000000E-01 -1.25000000E-01  0.00000000E+00
                      -3.75000000E-01 -1.25000000E-01  1.25000000E-01
                      -2.50000000E-01 -1.25000000E-01  2.50000000E-01
                      -1.25000000E-01 -1.25000000E-01  3.75000000E-01
                      -3.75000000E-01 -2.50000000E-01  0.00000000E+00
                      -2.50000000E-01 -2.50000000E-01  1.25000000E-01
                      -1.25000000E-01 -2.50000000E-01  2.50000000E-01
                       2.50000000E-01 -1.25000000E-01  0.00000000E+00
                       3.75000000E-01 -1.25000000E-01  1.25000000E-01
                       5.00000000E-01 -1.25000000E-01  2.50000000E-01
                      -3.75000000E-01 -1.25000000E-01  3.75000000E-01
                      -2.50000000E-01 -1.25000000E-01  5.00000000E-01
                      -1.25000000E-01 -1.25000000E-01 -3.75000000E-01
                      -2.50000000E-01 -3.75000000E-01  0.00000000E+00
                      -1.25000000E-01 -3.75000000E-01  1.25000000E-01
                       3.75000000E-01 -2.50000000E-01  0.00000000E+00
                       5.00000000E-01 -2.50000000E-01  1.25000000E-01
                      -3.75000000E-01 -2.50000000E-01  2.50000000E-01
                      -2.50000000E-01 -2.50000000E-01  3.75000000E-01
                      -1.25000000E-01 -2.50000000E-01  5.00000000E-01
                       0.00000000E+00 -1.25000000E-01  0.00000000E+00
                       1.25000000E-01 -1.25000000E-01  1.25000000E-01
                       2.50000000E-01 -1.25000000E-01  2.50000000E-01
                       3.75000000E-01 -1.25000000E-01  3.75000000E-01
                       5.00000000E-01 -1.25000000E-01  5.00000000E-01
                      -3.75000000E-01 -1.25000000E-01 -3.75000000E-01
                      -2.50000000E-01 -1.25000000E-01 -2.50000000E-01
                      -1.25000000E-01 -1.25000000E-01 -1.25000000E-01
                      -1.25000000E-01  5.00000000E-01  0.00000000E+00
                       5.00000000E-01 -3.75000000E-01  0.00000000E+00
                      -3.75000000E-01 -3.75000000E-01  1.25000000E-01
                      -2.50000000E-01 -3.75000000E-01  2.50000000E-01
                      -1.25000000E-01 -3.75000000E-01  3.75000000E-01
                       1.25000000E-01 -2.50000000E-01  0.00000000E+00
                       2.50000000E-01 -2.50000000E-01  1.25000000E-01
                       3.75000000E-01 -2.50000000E-01  2.50000000E-01
                       5.00000000E-01 -2.50000000E-01  3.75000000E-01
                      -3.75000000E-01 -2.50000000E-01  5.00000000E-01
                      -2.50000000E-01 -2.50000000E-01 -3.75000000E-01
                      -1.25000000E-01 -2.50000000E-01 -2.50000000E-01
                       0.00000000E+00 -1.25000000E-01  2.50000000E-01
                       1.25000000E-01 -1.25000000E-01  3.75000000E-01
                       2.50000000E-01 -1.25000000E-01  5.00000000E-01
                       3.75000000E-01 -1.25000000E-01 -3.75000000E-01
                       5.00000000E-01 -1.25000000E-01 -2.50000000E-01
                      -3.75000000E-01 -1.25000000E-01 -1.25000000E-01
                      -3.75000000E-01  5.00000000E-01  0.00000000E+00
              kpt2    -2.50000000E-01 -1.25000000E-01  0.00000000E+00
                      -1.25000000E-01 -1.25000000E-01  1.25000000E-01
                      -1.25000000E-01 -2.50000000E-01  0.00000000E+00
                       5.00000000E-01 -1.25000000E-01  0.00000000E+00
                      -3.75000000E-01 -1.25000000E-01  1.25000000E-01
                      -2.50000000E-01 -1.25000000E-01  2.50000000E-01
                      -1.25000000E-01 -1.25000000E-01  3.75000000E-01
                      -3.75000000E-01 -2.50000000E-01  0.00000000E+00
                      -2.50000000E-01 -2.50000000E-01  1.25000000E-01
                      -1.25000000E-01 -2.50000000E-01  2.50000000E-01
                       2.50000000E-01 -1.25000000E-01  0.00000000E+00
                       3.75000000E-01 -1.25000000E-01  1.25000000E-01
                       5.00000000E-01 -1.25000000E-01  2.50000000E-01
                      -3.75000000E-01 -1.25000000E-01  3.75000000E-01
                      -2.50000000E-01 -1.25000000E-01  5.00000000E-01
                      -1.25000000E-01 -1.25000000E-01 -3.75000000E-01
                      -2.50000000E-01 -3.75000000E-01  0.00000000E+00
                      -1.25000000E-01 -3.75000000E-01  1.25000000E-01
                       3.75000000E-01 -2.50000000E-01  0.00000000E+00
                       5.00000000E-01 -2.50000000E-01  1.25000000E-01
                      -3.75000000E-01 -2.50000000E-01  2.50000000E-01
                      -2.50000000E-01 -2.50000000E-01  3.75000000E-01
                      -1.25000000E-01 -2.50000000E-01  5.00000000E-01
                       0.00000000E+00 -1.25000000E-01  0.00000000E+00
                       1.25000000E-01 -1.25000000E-01  1.25000000E-01
                       2.50000000E-01 -1.25000000E-01  2.50000000E-01
                       3.75000000E-01 -1.25000000E-01  3.75000000E-01
                       5.00000000E-01 -1.25000000E-01  5.00000000E-01
                      -3.75000000E-01 -1.25000000E-01 -3.75000000E-01
                      -2.50000000E-01 -1.25000000E-01 -2.50000000E-01
                      -1.25000000E-01 -1.25000000E-01 -1.25000000E-01
                      -1.25000000E-01  5.00000000E-01  0.00000000E+00
                       5.00000000E-01 -3.75000000E-01  0.00000000E+00
                      -3.75000000E-01 -3.75000000E-01  1.25000000E-01
                      -2.50000000E-01 -3.75000000E-01  2.50000000E-01
                      -1.25000000E-01 -3.75000000E-01  3.75000000E-01
                       1.25000000E-01 -2.50000000E-01  0.00000000E+00
                       2.50000000E-01 -2.50000000E-01  1.25000000E-01
                       3.75000000E-01 -2.50000000E-01  2.50000000E-01
                       5.00000000E-01 -2.50000000E-01  3.75000000E-01
                      -3.75000000E-01 -2.50000000E-01  5.00000000E-01
                      -2.50000000E-01 -2.50000000E-01 -3.75000000E-01
                      -1.25000000E-01 -2.50000000E-01 -2.50000000E-01
                       0.00000000E+00 -1.25000000E-01  2.50000000E-01
                       1.25000000E-01 -1.25000000E-01  3.75000000E-01
                       2.50000000E-01 -1.25000000E-01  5.00000000E-01
                       3.75000000E-01 -1.25000000E-01 -3.75000000E-01
                       5.00000000E-01 -1.25000000E-01 -2.50000000E-01
                      -3.75000000E-01 -1.25000000E-01 -1.25000000E-01
                      -3.75000000E-01  5.00000000E-01  0.00000000E+00
              kpt3    -2.50000000E-01 -1.25000000E-01  0.00000000E+00
                      -1.25000000E-01 -1.25000000E-01  1.25000000E-01
                      -1.25000000E-01 -2.50000000E-01  0.00000000E+00
                       5.00000000E-01 -1.25000000E-01  0.00000000E+00
                      -3.75000000E-01 -1.25000000E-01  1.25000000E-01
                      -2.50000000E-01 -1.25000000E-01  2.50000000E-01
                      -1.25000000E-01 -1.25000000E-01  3.75000000E-01
                      -3.75000000E-01 -2.50000000E-01  0.00000000E+00
                      -2.50000000E-01 -2.50000000E-01  1.25000000E-01
                      -1.25000000E-01 -2.50000000E-01  2.50000000E-01
                       2.50000000E-01 -1.25000000E-01  0.00000000E+00
                       3.75000000E-01 -1.25000000E-01  1.25000000E-01
                       5.00000000E-01 -1.25000000E-01  2.50000000E-01
                      -3.75000000E-01 -1.25000000E-01  3.75000000E-01
                      -2.50000000E-01 -1.25000000E-01  5.00000000E-01
                      -1.25000000E-01 -1.25000000E-01 -3.75000000E-01
                      -2.50000000E-01 -3.75000000E-01  0.00000000E+00
                      -1.25000000E-01 -3.75000000E-01  1.25000000E-01
                       3.75000000E-01 -2.50000000E-01  0.00000000E+00
                       5.00000000E-01 -2.50000000E-01  1.25000000E-01
                      -3.75000000E-01 -2.50000000E-01  2.50000000E-01
                      -2.50000000E-01 -2.50000000E-01  3.75000000E-01
                      -1.25000000E-01 -2.50000000E-01  5.00000000E-01
                       0.00000000E+00 -1.25000000E-01  0.00000000E+00
                       1.25000000E-01 -1.25000000E-01  1.25000000E-01
                       2.50000000E-01 -1.25000000E-01  2.50000000E-01
                       3.75000000E-01 -1.25000000E-01  3.75000000E-01
                       5.00000000E-01 -1.25000000E-01  5.00000000E-01
                      -3.75000000E-01 -1.25000000E-01 -3.75000000E-01
                      -2.50000000E-01 -1.25000000E-01 -2.50000000E-01
                      -1.25000000E-01 -1.25000000E-01 -1.25000000E-01
                      -1.25000000E-01  5.00000000E-01  0.00000000E+00
                       5.00000000E-01 -3.75000000E-01  0.00000000E+00
                      -3.75000000E-01 -3.75000000E-01  1.25000000E-01
                      -2.50000000E-01 -3.75000000E-01  2.50000000E-01
                      -1.25000000E-01 -3.75000000E-01  3.75000000E-01
                       1.25000000E-01 -2.50000000E-01  0.00000000E+00
                       2.50000000E-01 -2.50000000E-01  1.25000000E-01
                       3.75000000E-01 -2.50000000E-01  2.50000000E-01
                       5.00000000E-01 -2.50000000E-01  3.75000000E-01
                      -3.75000000E-01 -2.50000000E-01  5.00000000E-01
                      -2.50000000E-01 -2.50000000E-01 -3.75000000E-01
                      -1.25000000E-01 -2.50000000E-01 -2.50000000E-01
                       0.00000000E+00 -1.25000000E-01  2.50000000E-01
                       1.25000000E-01 -1.25000000E-01  3.75000000E-01
                       2.50000000E-01 -1.25000000E-01  5.00000000E-01
                       3.75000000E-01 -1.25000000E-01 -3.75000000E-01
                       5.00000000E-01 -1.25000000E-01 -2.50000000E-01
                      -3.75000000E-01 -1.25000000E-01 -1.25000000E-01
                      -3.75000000E-01  5.00000000E-01  0.00000000E+00
              kpt4    -2.50000000E-01 -1.25000000E-01  0.00000000E+00
                      -1.25000000E-01 -1.25000000E-01  1.25000000E-01
                      -1.25000000E-01 -2.50000000E-01  0.00000000E+00
                       5.00000000E-01 -1.25000000E-01  0.00000000E+00
                      -3.75000000E-01 -1.25000000E-01  1.25000000E-01
                      -2.50000000E-01 -1.25000000E-01  2.50000000E-01
                      -1.25000000E-01 -1.25000000E-01  3.75000000E-01
                      -3.75000000E-01 -2.50000000E-01  0.00000000E+00
                      -2.50000000E-01 -2.50000000E-01  1.25000000E-01
                      -1.25000000E-01 -2.50000000E-01  2.50000000E-01
                       2.50000000E-01 -1.25000000E-01  0.00000000E+00
                       3.75000000E-01 -1.25000000E-01  1.25000000E-01
                       5.00000000E-01 -1.25000000E-01  2.50000000E-01
                      -3.75000000E-01 -1.25000000E-01  3.75000000E-01
                      -2.50000000E-01 -1.25000000E-01  5.00000000E-01
                      -1.25000000E-01 -1.25000000E-01 -3.75000000E-01
                      -2.50000000E-01 -3.75000000E-01  0.00000000E+00
                      -1.25000000E-01 -3.75000000E-01  1.25000000E-01
                       3.75000000E-01 -2.50000000E-01  0.00000000E+00
                       5.00000000E-01 -2.50000000E-01  1.25000000E-01
                      -3.75000000E-01 -2.50000000E-01  2.50000000E-01
                      -2.50000000E-01 -2.50000000E-01  3.75000000E-01
                      -1.25000000E-01 -2.50000000E-01  5.00000000E-01
                       0.00000000E+00 -1.25000000E-01  0.00000000E+00
                       1.25000000E-01 -1.25000000E-01  1.25000000E-01
                       2.50000000E-01 -1.25000000E-01  2.50000000E-01
                       3.75000000E-01 -1.25000000E-01  3.75000000E-01
                       5.00000000E-01 -1.25000000E-01  5.00000000E-01
                      -3.75000000E-01 -1.25000000E-01 -3.75000000E-01
                      -2.50000000E-01 -1.25000000E-01 -2.50000000E-01
                      -1.25000000E-01 -1.25000000E-01 -1.25000000E-01
                      -1.25000000E-01  5.00000000E-01  0.00000000E+00
                       5.00000000E-01 -3.75000000E-01  0.00000000E+00
                      -3.75000000E-01 -3.75000000E-01  1.25000000E-01
                      -2.50000000E-01 -3.75000000E-01  2.50000000E-01
                      -1.25000000E-01 -3.75000000E-01  3.75000000E-01
                       1.25000000E-01 -2.50000000E-01  0.00000000E+00
                       2.50000000E-01 -2.50000000E-01  1.25000000E-01
                       3.75000000E-01 -2.50000000E-01  2.50000000E-01
                       5.00000000E-01 -2.50000000E-01  3.75000000E-01
                      -3.75000000E-01 -2.50000000E-01  5.00000000E-01
                      -2.50000000E-01 -2.50000000E-01 -3.75000000E-01
                      -1.25000000E-01 -2.50000000E-01 -2.50000000E-01
                       0.00000000E+00 -1.25000000E-01  2.50000000E-01
                       1.25000000E-01 -1.25000000E-01  3.75000000E-01
                       2.50000000E-01 -1.25000000E-01  5.00000000E-01
                       3.75000000E-01 -1.25000000E-01 -3.75000000E-01
                       5.00000000E-01 -1.25000000E-01 -2.50000000E-01
                      -3.75000000E-01 -1.25000000E-01 -1.25000000E-01
                      -3.75000000E-01  5.00000000E-01  0.00000000E+00
              kpt5    -2.50000000E-01 -1.25000000E-01  0.00000000E+00
                      -1.25000000E-01 -1.25000000E-01  1.25000000E-01
                      -1.25000000E-01 -2.50000000E-01  0.00000000E+00
                       5.00000000E-01 -1.25000000E-01  0.00000000E+00
                      -3.75000000E-01 -1.25000000E-01  1.25000000E-01
                      -2.50000000E-01 -1.25000000E-01  2.50000000E-01
                      -1.25000000E-01 -1.25000000E-01  3.75000000E-01
                      -3.75000000E-01 -2.50000000E-01  0.00000000E+00
                      -2.50000000E-01 -2.50000000E-01  1.25000000E-01
                      -1.25000000E-01 -2.50000000E-01  2.50000000E-01
                       2.50000000E-01 -1.25000000E-01  0.00000000E+00
                       3.75000000E-01 -1.25000000E-01  1.25000000E-01
                       5.00000000E-01 -1.25000000E-01  2.50000000E-01
                      -3.75000000E-01 -1.25000000E-01  3.75000000E-01
                      -2.50000000E-01 -1.25000000E-01  5.00000000E-01
                      -1.25000000E-01 -1.25000000E-01 -3.75000000E-01
                      -2.50000000E-01 -3.75000000E-01  0.00000000E+00
                      -1.25000000E-01 -3.75000000E-01  1.25000000E-01
                       3.75000000E-01 -2.50000000E-01  0.00000000E+00
                       5.00000000E-01 -2.50000000E-01  1.25000000E-01
                      -3.75000000E-01 -2.50000000E-01  2.50000000E-01
                      -2.50000000E-01 -2.50000000E-01  3.75000000E-01
                      -1.25000000E-01 -2.50000000E-01  5.00000000E-01
                       0.00000000E+00 -1.25000000E-01  0.00000000E+00
                       1.25000000E-01 -1.25000000E-01  1.25000000E-01
                       2.50000000E-01 -1.25000000E-01  2.50000000E-01
                       3.75000000E-01 -1.25000000E-01  3.75000000E-01
                       5.00000000E-01 -1.25000000E-01  5.00000000E-01
                      -3.75000000E-01 -1.25000000E-01 -3.75000000E-01
                      -2.50000000E-01 -1.25000000E-01 -2.50000000E-01
                      -1.25000000E-01 -1.25000000E-01 -1.25000000E-01
                      -1.25000000E-01  5.00000000E-01  0.00000000E+00
                       5.00000000E-01 -3.75000000E-01  0.00000000E+00
                      -3.75000000E-01 -3.75000000E-01  1.25000000E-01
                      -2.50000000E-01 -3.75000000E-01  2.50000000E-01
                      -1.25000000E-01 -3.75000000E-01  3.75000000E-01
                       1.25000000E-01 -2.50000000E-01  0.00000000E+00
                       2.50000000E-01 -2.50000000E-01  1.25000000E-01
                       3.75000000E-01 -2.50000000E-01  2.50000000E-01
                       5.00000000E-01 -2.50000000E-01  3.75000000E-01
                      -3.75000000E-01 -2.50000000E-01  5.00000000E-01
                      -2.50000000E-01 -2.50000000E-01 -3.75000000E-01
                      -1.25000000E-01 -2.50000000E-01 -2.50000000E-01
                       0.00000000E+00 -1.25000000E-01  2.50000000E-01
                       1.25000000E-01 -1.25000000E-01  3.75000000E-01
                       2.50000000E-01 -1.25000000E-01  5.00000000E-01
                       3.75000000E-01 -1.25000000E-01 -3.75000000E-01
                       5.00000000E-01 -1.25000000E-01 -2.50000000E-01
                      -3.75000000E-01 -1.25000000E-01 -1.25000000E-01
                      -3.75000000E-01  5.00000000E-01  0.00000000E+00
              kpt6    -2.50000000E-01 -1.25000000E-01  0.00000000E+00
                      -1.25000000E-01 -1.25000000E-01  1.25000000E-01
                      -1.25000000E-01 -2.50000000E-01  0.00000000E+00
                       5.00000000E-01 -1.25000000E-01  0.00000000E+00
                      -3.75000000E-01 -1.25000000E-01  1.25000000E-01
                      -2.50000000E-01 -1.25000000E-01  2.50000000E-01
                      -1.25000000E-01 -1.25000000E-01  3.75000000E-01
                      -3.75000000E-01 -2.50000000E-01  0.00000000E+00
                      -2.50000000E-01 -2.50000000E-01  1.25000000E-01
                      -1.25000000E-01 -2.50000000E-01  2.50000000E-01
                       2.50000000E-01 -1.25000000E-01  0.00000000E+00
                       3.75000000E-01 -1.25000000E-01  1.25000000E-01
                       5.00000000E-01 -1.25000000E-01  2.50000000E-01
                      -3.75000000E-01 -1.25000000E-01  3.75000000E-01
                      -2.50000000E-01 -1.25000000E-01  5.00000000E-01
                      -1.25000000E-01 -1.25000000E-01 -3.75000000E-01
                      -2.50000000E-01 -3.75000000E-01  0.00000000E+00
                      -1.25000000E-01 -3.75000000E-01  1.25000000E-01
                       3.75000000E-01 -2.50000000E-01  0.00000000E+00
                       5.00000000E-01 -2.50000000E-01  1.25000000E-01
                      -3.75000000E-01 -2.50000000E-01  2.50000000E-01
                      -2.50000000E-01 -2.50000000E-01  3.75000000E-01
                      -1.25000000E-01 -2.50000000E-01  5.00000000E-01
                       0.00000000E+00 -1.25000000E-01  0.00000000E+00
                       1.25000000E-01 -1.25000000E-01  1.25000000E-01
                       2.50000000E-01 -1.25000000E-01  2.50000000E-01
                       3.75000000E-01 -1.25000000E-01  3.75000000E-01
                       5.00000000E-01 -1.25000000E-01  5.00000000E-01
                      -3.75000000E-01 -1.25000000E-01 -3.75000000E-01
                      -2.50000000E-01 -1.25000000E-01 -2.50000000E-01
                      -1.25000000E-01 -1.25000000E-01 -1.25000000E-01
                      -1.25000000E-01  5.00000000E-01  0.00000000E+00
                       5.00000000E-01 -3.75000000E-01  0.00000000E+00
                      -3.75000000E-01 -3.75000000E-01  1.25000000E-01
                      -2.50000000E-01 -3.75000000E-01  2.50000000E-01
                      -1.25000000E-01 -3.75000000E-01  3.75000000E-01
                       1.25000000E-01 -2.50000000E-01  0.00000000E+00
                       2.50000000E-01 -2.50000000E-01  1.25000000E-01
                       3.75000000E-01 -2.50000000E-01  2.50000000E-01
                       5.00000000E-01 -2.50000000E-01  3.75000000E-01
                      -3.75000000E-01 -2.50000000E-01  5.00000000E-01
                      -2.50000000E-01 -2.50000000E-01 -3.75000000E-01
                      -1.25000000E-01 -2.50000000E-01 -2.50000000E-01
                       0.00000000E+00 -1.25000000E-01  2.50000000E-01
                       1.25000000E-01 -1.25000000E-01  3.75000000E-01
                       2.50000000E-01 -1.25000000E-01  5.00000000E-01
                       3.75000000E-01 -1.25000000E-01 -3.75000000E-01
                       5.00000000E-01 -1.25000000E-01 -2.50000000E-01
                      -3.75000000E-01 -1.25000000E-01 -1.25000000E-01
                      -3.75000000E-01  5.00000000E-01  0.00000000E+00
                       outvar_i_n : Printing only first  50 k-points.
           kptopt1          1
           kptopt2          1
           kptopt3          3
           kptopt4          3
           kptopt5          3
           kptopt6          3
         kptrlatt        8    0    0      0    8    0     -4  -12    4
          kptrlen      3.41108311E+01
P           mkmem1        128
P           mkmem2        128
P           mkmem3        256
P           mkmem4        256
P           mkmem5        256
P           mkmem6        256
P          mkqmem1        128
P          mkqmem2        128
P          mkqmem3        256
P          mkqmem4        256
P          mkqmem5        256
P          mkqmem6        256
P          mk1mem1        128
P          mk1mem2        128
P          mk1mem3        256
P          mk1mem4        256
P          mk1mem5        256
P          mk1mem6        256
            natom           3
            nband1         20
            nband2         40
            nband3         40
            nband4         40
            nband5         40
            nband6         40
           nbdbuf1          0
           nbdbuf2          2
           nbdbuf3          2
           nbdbuf4          2
           nbdbuf5          2
           nbdbuf6          2
           ndtset           6
            ngfft          18      18      96
             nkpt1        128
             nkpt2        128
             nkpt3        256
             nkpt4        256
             nkpt5        256
             nkpt6        256
            nline1          4
            nline2          4
            nline3          4
            nline4          0
            nline5          0
            nline6          0
             nqpt1          0
             nqpt2          0
             nqpt3          0
             nqpt4          1
             nqpt5          1
             nqpt6          1
            nstep1         25
            nstep2         25
            nstep3         25
            nstep4          1
            nstep5          1
            nstep6          1
             nsym           1
           ntypat           2
              occ1     2.000000  2.000000  2.000000  2.000000  2.000000  2.000000
                       2.000000  2.000000  2.000000  2.000000  2.000000  2.000000
                       2.000000  0.000000  0.000000  0.000000  0.000000  0.000000
                       0.000000  0.000000
              occ4     2.000000  2.000000  2.000000  2.000000  2.000000  2.000000
                       2.000000  2.000000  2.000000  2.000000  2.000000  2.000000
                       2.000000  0.000000  0.000000  0.000000  0.000000  0.000000
                       0.000000  0.000000  0.000000  0.000000  0.000000  0.000000
                       0.000000  0.000000  0.000000  0.000000  0.000000  0.000000
                       0.000000  0.000000  0.000000  0.000000  0.000000  0.000000
                       0.000000  0.000000  0.000000  0.000000
              occ5     2.000000  2.000000  2.000000  2.000000  2.000000  2.000000
                       2.000000  2.000000  2.000000  2.000000  2.000000  2.000000
                       2.000000  0.000000  0.000000  0.000000  0.000000  0.000000
                       0.000000  0.000000  0.000000  0.000000  0.000000  0.000000
                       0.000000  0.000000  0.000000  0.000000  0.000000  0.000000
                       0.000000  0.000000  0.000000  0.000000  0.000000  0.000000
                       0.000000  0.000000  0.000000  0.000000
              occ6     2.000000  2.000000  2.000000  2.000000  2.000000  2.000000
                       2.000000  2.000000  2.000000  2.000000  2.000000  2.000000
                       2.000000  0.000000  0.000000  0.000000  0.000000  0.000000
                       0.000000  0.000000  0.000000  0.000000  0.000000  0.000000
                       0.000000  0.000000  0.000000  0.000000  0.000000  0.000000
                       0.000000  0.000000  0.000000  0.000000  0.000000  0.000000
                       0.000000  0.000000  0.000000  0.000000
        optdriver1          0
        optdriver2          0
        optdriver3          0
        optdriver4          1
        optdriver5          1
        optdriver6          1
            prtwf1          1
            prtwf2          1
            prtwf3          1
            prtwf4          3
            prtwf5          3
            prtwf6          3
            rfdir1          0       0       0
            rfdir2          0       0       0
            rfdir3          0       0       0
            rfdir4          1       0       0
            rfdir5          0       1       0
            rfdir6          0       0       1
           rfelfd1          0
           rfelfd2          0
           rfelfd3          0
           rfelfd4          2
           rfelfd5          2
           rfelfd6          2
            rprim      0.0000000000E+00  5.0000000000E-01  5.0000000000E-01
                       5.0000000000E-01  0.0000000000E+00  5.0000000000E-01
                       5.0000000000E-01  5.0000000000E-01  0.0000000000E+00
           shiftk      0.00000000E+00  0.00000000E+00  5.00000000E-01
          spgroup           1
           tolwfr      1.00000000E-20
            typat      1  2  2
              wtk1       0.00781    0.00781    0.00781    0.00781    0.00781    0.00781
                         0.00781    0.00781    0.00781    0.00781    0.00781    0.00781
                         0.00781    0.00781    0.00781    0.00781    0.00781    0.00781
                         0.00781    0.00781    0.00781    0.00781    0.00781    0.00781
                         0.00781    0.00781    0.00781    0.00781    0.00781    0.00781
                         0.00781    0.00781    0.00781    0.00781    0.00781    0.00781
                         0.00781    0.00781    0.00781    0.00781    0.00781    0.00781
                         0.00781    0.00781    0.00781    0.00781    0.00781    0.00781
                         0.00781    0.00781
              wtk2       0.00781    0.00781    0.00781    0.00781    0.00781    0.00781
                         0.00781    0.00781    0.00781    0.00781    0.00781    0.00781
                         0.00781    0.00781    0.00781    0.00781    0.00781    0.00781
                         0.00781    0.00781    0.00781    0.00781    0.00781    0.00781
                         0.00781    0.00781    0.00781    0.00781    0.00781    0.00781
                         0.00781    0.00781    0.00781    0.00781    0.00781    0.00781
                         0.00781    0.00781    0.00781    0.00781    0.00781    0.00781
                         0.00781    0.00781    0.00781    0.00781    0.00781    0.00781
                         0.00781    0.00781
              wtk3       0.00391    0.00391    0.00391    0.00391    0.00391    0.00391
                         0.00391    0.00391    0.00391    0.00391    0.00391    0.00391
                         0.00391    0.00391    0.00391    0.00391    0.00391    0.00391
                         0.00391    0.00391    0.00391    0.00391    0.00391    0.00391
                         0.00391    0.00391    0.00391    0.00391    0.00391    0.00391
                         0.00391    0.00391    0.00391    0.00391    0.00391    0.00391
                         0.00391    0.00391    0.00391    0.00391    0.00391    0.00391
                         0.00391    0.00391    0.00391    0.00391    0.00391    0.00391
                         0.00391    0.00391
              wtk4       0.00391    0.00391    0.00391    0.00391    0.00391    0.00391
                         0.00391    0.00391    0.00391    0.00391    0.00391    0.00391
                         0.00391    0.00391    0.00391    0.00391    0.00391    0.00391
                         0.00391    0.00391    0.00391    0.00391    0.00391    0.00391
                         0.00391    0.00391    0.00391    0.00391    0.00391    0.00391
                         0.00391    0.00391    0.00391    0.00391    0.00391    0.00391
                         0.00391    0.00391    0.00391    0.00391    0.00391    0.00391
                         0.00391    0.00391    0.00391    0.00391    0.00391    0.00391
                         0.00391    0.00391
              wtk5       0.00391    0.00391    0.00391    0.00391    0.00391    0.00391
                         0.00391    0.00391    0.00391    0.00391    0.00391    0.00391
                         0.00391    0.00391    0.00391    0.00391    0.00391    0.00391
                         0.00391    0.00391    0.00391    0.00391    0.00391    0.00391
                         0.00391    0.00391    0.00391    0.00391    0.00391    0.00391
                         0.00391    0.00391    0.00391    0.00391    0.00391    0.00391
                         0.00391    0.00391    0.00391    0.00391    0.00391    0.00391
                         0.00391    0.00391    0.00391    0.00391    0.00391    0.00391
                         0.00391    0.00391
              wtk6       0.00391    0.00391    0.00391    0.00391    0.00391    0.00391
                         0.00391    0.00391    0.00391    0.00391    0.00391    0.00391
                         0.00391    0.00391    0.00391    0.00391    0.00391    0.00391
                         0.00391    0.00391    0.00391    0.00391    0.00391    0.00391
                         0.00391    0.00391    0.00391    0.00391    0.00391    0.00391
                         0.00391    0.00391    0.00391    0.00391    0.00391    0.00391
                         0.00391    0.00391    0.00391    0.00391    0.00391    0.00391
                         0.00391    0.00391    0.00391    0.00391    0.00391    0.00391
                         0.00391    0.00391
                       outvars : Printing only first  50 k-points.
           xangst      0.0000000000E+00  0.0000000000E+00  0.0000000000E+00
                      -3.2307856116E-01 -3.2307856116E-01  1.0636461893E+00
                       1.3867247504E+00  1.3867247504E+00  1.0636461893E+00
            xcart      0.0000000000E+00  0.0000000000E+00  0.0000000000E+00
                      -6.1053000000E-01 -6.1053000000E-01  2.0100000000E+00
                       2.6205300000E+00  2.6205300000E+00  2.0100000000E+00
             xred      0.0000000000E+00  0.0000000000E+00  0.0000000000E+00
                       3.3333333333E-01  3.3333333333E-01 -9.8000000000E-02
                       3.3333333333E-01  3.3333333333E-01  9.8000000000E-02
            znucl       42.00000   16.00000

================================================================================

 chkinp: Checking input parameters for consistency, jdtset=   1.

 chkinp: Checking input parameters for consistency, jdtset=   2.

 chkinp: Checking input parameters for consistency, jdtset=   3.

 chkinp: Checking input parameters for consistency, jdtset=   4.

 chkinp: Checking input parameters for consistency, jdtset=   5.

 chkinp: Checking input parameters for consistency, jdtset=   6.
 DATA TYPE INFORMATION: 
 REAL:      Data type name: REAL(DP) 
            Kind value:      8
            Precision:      15
            Smallest nonnegligible quantity relative to 1: 0.22204460E-015
            Smallest positive number:                      0.22250739E-307
            Largest representable number:                  0.17976931E+309
 INTEGER:   Data type name: INTEGER(default) 
            Kind value: 4
            Bit size:   32
            Largest representable number: 2147483647
 LOGICAL:   Data type name: LOGICAL 
            Kind value: 4
 CHARACTER: Data type name: CHARACTER             Kind value: 1

  ==== OpenMP parallelism is OFF ====
 
  ==== Using MPI-2 specifications ==== 
  MPI-IO support is ON
  xmpi_tag_ub ................   2147483647
  xmpi_bsize_ch ..............            1
  xmpi_bsize_int .............            4
  xmpi_bsize_sp ..............            4
  xmpi_bsize_dp ..............            8
  xmpi_bsize_spc .............            8
  xmpi_bsize_dpc .............           16
  xmpio_bsize_frm ............            4
  xmpi_address_kind ..........            8
  xmpi_offset_kind ...........            8
  MPI_WTICK ..................    1.0000000000000001E-009

================================================================================
== DATASET  1 ==================================================================
-   mpi_nproc: 1, omp_nthreads: -1 (-1 if OMP is not activated)


--- !COMMENT
src_file: m_xgScalapack.F90
src_line: 236
message: |
    xgScalapack in auto mode
...


 getdim_nloc : deduce lmnmax  =  18, lnmax  =   6,
                      lmnmaxso=  18, lnmaxso=   6.
 Exchange-correlation functional for the present dataset will be:
  GGA: Perdew-Burke-Ernzerhof functional - ixc=11
 Citation for XC functional:
  J.P.Perdew, K.Burke, M.Ernzerhof, PRL 77, 3865 (1996)

 Unit cell volume ucvol=  2.9970472E+02 bohr^3
 Angles (23,13,12)=  6.00000000E+01  6.00000000E+01  6.00000000E+01 degrees

 getcut: wavevector=  0.0000  0.0000  0.0000  ngfft=  18  18  96
         ecut(hartree)=     20.000   => boxcut(ratio)=   2.04946
- pspini: atom type   1  psp file is Mo.psp8
- pspatm: opening atomic psp file    Mo.psp8
- Mo    ONCVPSP-3.2.3.1  r_core=   1.45541   1.45541   1.35488
- 42.00000  14.00000    170510                znucl, zion, pspdat
    8   11    2    4       600   0.00000      pspcod,pspxc,lmax,lloc,mmax,r2well
    5.99000000000000    3.00000000000000    0.00000000000000   rchrg,fchrg,qchrg
     nproj     2     2     2
     extension_switch     1
  valence charge integrates to:    13.910619929066559     
  pspatm : epsatm=   15.95693586
         --- l  ekb(1:nproj) -->
             0   13.833287    1.350687
             1    8.015347    1.134034
             2    2.765699    0.969071
 pspatm: atomic psp has been read  and splines computed

- pspini: atom type   2  psp file is S.psp8
- pspatm: opening atomic psp file    S.psp8
- S     ONCVPSP-3.2.3.1  r_core=   1.45376   1.45376   1.61851
- 16.00000   6.00000    170504                znucl, zion, pspdat
    8   11    2    4       600   0.00000      pspcod,pspxc,lmax,lloc,mmax,r2well
    5.99000000000000    6.00000000000000    0.00000000000000   rchrg,fchrg,qchrg
     nproj     2     2     2
     extension_switch     1
  valence charge integrates to:    5.9895206683396385     
  pspatm : epsatm=    9.01821879
         --- l  ekb(1:nproj) -->
             0    6.763951    0.574108
             1    3.227080    0.887329
             2   -3.547662   -0.986524
 pspatm: atomic psp has been read  and splines computed

   8.83827710E+02                                ecore*ucvol(ha*bohr**3)
 ==== Info on pseudopotentials ====
  Norm-conserving pseudopotentials
  Number of pseudopotentials ..    2
  Number of types of atoms   ..    2
  Scalar calculation (no spin-orbit term)
  Nonlocal part applied using Legendre polynomials
  Max number of non-local projectors over l and type   2
  Highest angular momentum +1 .......   3
  Max number of (l,n)   components ..   6
  Max number of (l,m,n) components ..   6

 Pseudo-Core Charge Info: 
   Number of radial points for pseudo-core charge .. 2501
   XC core-correction treatment (optnlxccc) ........    1
   Radius for pseudo-core charge for each type ..... 

  - Atom type    1 has pseudo-core radius ..  5.9900
  - Atom type    2 has pseudo-core radius ..  5.9900

 Info on the Q-grid used for form factors in spline form: 
   Number of q-points for radial functions ffspl ..   3833
   Number of q-points for vlspl ...................   3833
   vloc is computed in Reciprocal Space
   model core charge treated in real-space

  XC functional for type 1 is 11
  Pseudo valence available: yes
  XC functional for type 2 is 11
  Pseudo valence available: yes

 wfconv:    20 bands initialized randomly with npw=  1286, for ikpt=     1
 wfconv:    20 bands initialized randomly with npw=  1286, for ikpt=     2
 wfconv:    20 bands initialized randomly with npw=  1286, for ikpt=     3
 wfconv:    20 bands initialized randomly with npw=  1287, for ikpt=     4
 wfconv:    20 bands initialized randomly with npw=  1285, for ikpt=     5
 wfconv:    20 bands initialized randomly with npw=  1285, for ikpt=     6
 wfconv:    20 bands initialized randomly with npw=  1296, for ikpt=     7
 wfconv:    20 bands initialized randomly with npw=  1279, for ikpt=     8
 wfconv:    20 bands initialized randomly with npw=  1277, for ikpt=     9
 wfconv:    20 bands initialized randomly with npw=  1285, for ikpt=    10
 wfconv:    20 bands initialized randomly with npw=  1274, for ikpt=    11
 wfconv:    20 bands initialized randomly with npw=  1284, for ikpt=    12
 wfconv:    20 bands initialized randomly with npw=  1282, for ikpt=    13
 wfconv:    20 bands initialized randomly with npw=  1276, for ikpt=    14
 wfconv:    20 bands initialized randomly with npw=  1279, for ikpt=    15
 wfconv:    20 bands initialized randomly with npw=  1299, for ikpt=    16
 wfconv:    20 bands initialized randomly with npw=  1279, for ikpt=    17
 wfconv:    20 bands initialized randomly with npw=  1285, for ikpt=    18
 wfconv:    20 bands initialized randomly with npw=  1282, for ikpt=    19
 wfconv:    20 bands initialized randomly with npw=  1279, for ikpt=    20
 wfconv:    20 bands initialized randomly with npw=  1274, for ikpt=    21
 wfconv:    20 bands initialized randomly with npw=  1284, for ikpt=    22
 wfconv:    20 bands initialized randomly with npw=  1279, for ikpt=    23
 wfconv:    20 bands initialized randomly with npw=  1294, for ikpt=    24
 wfconv:    20 bands initialized randomly with npw=  1287, for ikpt=    25
 wfconv:    20 bands initialized randomly with npw=  1275, for ikpt=    26
 wfconv:    20 bands initialized randomly with npw=  1282, for ikpt=    27
 wfconv:    20 bands initialized randomly with npw=  1283, for ikpt=    28
 wfconv:    20 bands initialized randomly with npw=  1272, for ikpt=    29
 wfconv:    20 bands initialized randomly with npw=  1284, for ikpt=    30
 wfconv:    20 bands initialized randomly with npw=  1294, for ikpt=    31
 wfconv:    20 bands initialized randomly with npw=  1287, for ikpt=    32
 wfconv:    20 bands initialized randomly with npw=  1277, for ikpt=    33
 wfconv:    20 bands initialized randomly with npw=  1270, for ikpt=    34
 wfconv:    20 bands initialized randomly with npw=  1274, for ikpt=    35
 wfconv:    20 bands initialized randomly with npw=  1276, for ikpt=    36
 wfconv:    20 bands initialized randomly with npw=  1274, for ikpt=    37
 wfconv:    20 bands initialized randomly with npw=  1276, for ikpt=    38
 wfconv:    20 bands initialized randomly with npw=  1272, for ikpt=    39
 wfconv:    20 bands initialized randomly with npw=  1273, for ikpt=    40
 wfconv:    20 bands initialized randomly with npw=  1275, for ikpt=    41
 wfconv:    20 bands initialized randomly with npw=  1280, for ikpt=    42
 wfconv:    20 bands initialized randomly with npw=  1284, for ikpt=    43
 wfconv:    20 bands initialized randomly with npw=  1291, for ikpt=    44
 wfconv:    20 bands initialized randomly with npw=  1279, for ikpt=    45
 wfconv:    20 bands initialized randomly with npw=  1276, for ikpt=    46
 wfconv:    20 bands initialized randomly with npw=  1276, for ikpt=    47
 wfconv:    20 bands initialized randomly with npw=  1279, for ikpt=    48
 wfconv:    20 bands initialized randomly with npw=  1278, for ikpt=    49
 wfconv:    20 bands initialized randomly with npw=  1277, for ikpt=    50
_setup2: Arith. and geom. avg. npw (full set) are    1280.711    1280.691
 initro: for itypat=  1, take pseudo charge density from pp file
 initro: for itypat=  2, take pseudo charge density from pp file

================================================================================

 getcut: wavevector=  0.0000  0.0000  0.0000  ngfft=  18  18  96
         ecut(hartree)=     20.000   => boxcut(ratio)=   2.04946

 1/G**2 cut-off applied in the following step : cutoff-mode = CRYSTAL

 1/G**2 cut-off applied in the following step : cutoff-mode = CRYSTAL

 1/G**2 cut-off applied in the following step : cutoff-mode = CRYSTAL

 ITER STEP NUMBER     1
 Max number of non-self-consistent loops: 2
 Total charge density [el/Bohr^3]
      Maximum=    1.5922E+00  at reduced coord.    0.1667    0.1111    0.9583
      Minimum=    1.3387E-04  at reduced coord.    0.0000    0.4444    0.4063
   Integrated=    2.6000E+01

 1/G**2 cut-off applied in the following step : cutoff-mode = CRYSTAL
 ETOT  1  -87.405345621644    -8.741E+01 1.412E-01 9.861E+03
 scprqt: <Vxc>= -3.0817241E-01 hartree

 Simple mixing update:
  residual square of the potential:    904.48566641809759
{SCF_istep: 1 , Vnl|psi>: 25600 , wall_time: ' 21.75 [s] '} <<< TIME

 ITER STEP NUMBER     2
 Max number of non-self-consistent loops: 2
 Total charge density [el/Bohr^3]
      Maximum=    1.2181E+00  at reduced coord.    0.1111    0.1667    0.9583
      Minimum=    8.5666E-06  at reduced coord.    0.2222    0.1667    0.5000
   Integrated=    2.6000E+01
 ETOT  2  -87.592173324512    -1.868E-01 3.992E-02 4.936E+03
 scprqt: <Vxc>= -3.2509667E-01 hartree

 Pulay update with  1 previous iterations:
 mixing of old trial potential: alpha(m:m-4)=  0.527      0.473
{SCF_istep: 2 , Vnl|psi>: 25600 , wall_time: ' 21.11 [s] '} <<< TIME

 ITER STEP NUMBER     3
 Total charge density [el/Bohr^3]
      Maximum=    1.3792E+00  at reduced coord.    0.1667    0.1111    0.9583
      Minimum=    7.4395E-06  at reduced coord.    0.6111    0.5556    0.5000
   Integrated=    2.6000E+01
 ETOT  3  -88.244549761051    -6.524E-01 2.246E-02 5.080E+02
 scprqt: <Vxc>= -3.1643712E-01 hartree

 Pulay update with  2 previous iterations:
 mixing of old trial potential: alpha(m:m-4)=  0.619      0.248      0.133
{SCF_istep: 3 , Vnl|psi>: 12800 , wall_time: ' 10.57 [s] '} <<< TIME

 ITER STEP NUMBER     4
 Total charge density [el/Bohr^3]
      Maximum=    1.3765E+00  at reduced coord.    0.1111    0.1667    0.9583
      Minimum=    6.2458E-06  at reduced coord.    0.3889    0.4444    0.4896
   Integrated=    2.6000E+01
 ETOT  4  -88.266216322458    -2.167E-02 5.784E-03 2.760E+02
 scprqt: <Vxc>= -3.1784001E-01 hartree

 Pulay update with  3 previous iterations:
 mixing of old trial potential: alpha(m:m-4)=  0.532      0.449      0.599E-01 -0.404E-01
{SCF_istep: 4 , Vnl|psi>: 12800 , wall_time: ' 10.40 [s] '} <<< TIME

 ITER STEP NUMBER     5
 Total charge density [el/Bohr^3]
      Maximum=    1.3733E+00  at reduced coord.    0.1667    0.1111    0.9583
      Minimum=    7.7101E-06  at reduced coord.    0.4444    0.3889    0.4896
   Integrated=    2.6000E+01
 ETOT  5  -88.276944651025    -1.073E-02 3.579E-03 5.332E+01
 scprqt: <Vxc>= -3.1912820E-01 hartree

 Pulay update with  4 previous iterations:
 mixing of old trial potential: alpha(m:m-4)=  0.831      0.190      0.674E-01 -0.249E-01 -0.641E-01
{SCF_istep: 5 , Vnl|psi>: 12800 , wall_time: ' 10.34 [s] '} <<< TIME

 ITER STEP NUMBER     6
 Total charge density [el/Bohr^3]
      Maximum=    1.3723E+00  at reduced coord.    0.1667    0.1111    0.9583
      Minimum=    9.7423E-06  at reduced coord.    0.4444    0.3889    0.4896
   Integrated=    2.6000E+01
 ETOT  6  -88.277993630803    -1.049E-03 3.960E-03 1.996E+01
 scprqt: <Vxc>= -3.2031250E-01 hartree

 Pulay update with  5 previous iterations:
 mixing of old trial potential: alpha(m:m-4)=  0.968      0.200     -0.834E-01 -0.122E-01 -0.323E-01
{SCF_istep: 6 , Vnl|psi>: 12800 , wall_time: ' 10.64 [s] '} <<< TIME

 ITER STEP NUMBER     7
 Total charge density [el/Bohr^3]
      Maximum=    1.3697E+00  at reduced coord.    0.1667    0.1111    0.9583
      Minimum=    1.1658E-05  at reduced coord.    0.4444    0.3889    0.4896
   Integrated=    2.6000E+01
 ETOT  7  -88.278447611153    -4.540E-04 4.041E-03 3.717E+00
 scprqt: <Vxc>= -3.2109942E-01 hartree

 Pulay update with  6 previous iterations:
 mixing of old trial potential: alpha(m:m-4)=   1.65     -0.782     -0.482E-01  0.210      0.896E-02
{SCF_istep: 7 , Vnl|psi>: 12800 , wall_time: ' 10.48 [s] '} <<< TIME

 ITER STEP NUMBER     8
 Total charge density [el/Bohr^3]
      Maximum=    1.3703E+00  at reduced coord.    0.1667    0.1111    0.9583
      Minimum=    1.3042E-05  at reduced coord.    0.4444    0.3889    0.4896
   Integrated=    2.6000E+01
 ETOT  8  -88.278480935395    -3.332E-05 2.597E-03 9.667E-01
 scprqt: <Vxc>= -3.2140875E-01 hartree

 Pulay update with  7 previous iterations:
 mixing of old trial potential: alpha(m:m-4)=   1.44     -0.724E-01 -0.374     -0.679E-01  0.664E-01
{SCF_istep: 8 , Vnl|psi>: 12800 , wall_time: ' 10.72 [s] '} <<< TIME

 ITER STEP NUMBER     9
 Total charge density [el/Bohr^3]
      Maximum=    1.3696E+00  at reduced coord.    0.1111    0.1667    0.9583
      Minimum=    1.4362E-05  at reduced coord.    0.3889    0.4444    0.4896
   Integrated=    2.6000E+01
 ETOT  9  -88.278491002785    -1.007E-05 1.696E-03 4.262E-02
 scprqt: <Vxc>= -3.2166767E-01 hartree

 Pulay update with  7 previous iterations:
 mixing of old trial potential: alpha(m:m-4)=   1.27     -0.268     -0.152      0.185      0.507E-03
{SCF_istep: 9 , Vnl|psi>: 12800 , wall_time: ' 10.77 [s] '} <<< TIME

 ITER STEP NUMBER    10
 Total charge density [el/Bohr^3]
      Maximum=    1.3697E+00  at reduced coord.    0.1667    0.1111    0.9583
      Minimum=    1.4581E-05  at reduced coord.    0.4444    0.3889    0.4896
   Integrated=    2.6000E+01
 ETOT 10  -88.278491808809    -8.060E-07 1.348E-03 5.684E-03
 scprqt: <Vxc>= -3.2169877E-01 hartree

 Pulay update with  7 previous iterations:
 mixing of old trial potential: alpha(m:m-4)=  0.883      0.335     -0.220     -0.102      0.119
{SCF_istep: 10 , Vnl|psi>: 12800 , wall_time: ' 10.44 [s] '} <<< TIME

 ITER STEP NUMBER    11
 Total charge density [el/Bohr^3]
      Maximum=    1.3696E+00  at reduced coord.    0.1111    0.1667    0.9583
      Minimum=    1.4706E-05  at reduced coord.    0.4444    0.3889    0.4896
   Integrated=    2.6000E+01
 ETOT 11  -88.278492011618    -2.028E-07 5.812E-04 7.930E-04
 scprqt: <Vxc>= -3.2171887E-01 hartree

 Pulay update with  7 previous iterations:
 mixing of old trial potential: alpha(m:m-4)=   1.20     -0.263      0.297E-01  0.555E-01 -0.374E-01
{SCF_istep: 11 , Vnl|psi>: 12800 , wall_time: ' 10.34 [s] '} <<< TIME

 ITER STEP NUMBER    12
 Total charge density [el/Bohr^3]
      Maximum=    1.3696E+00  at reduced coord.    0.1111    0.1667    0.9583
      Minimum=    1.4681E-05  at reduced coord.    0.4444    0.3889    0.4896
   Integrated=    2.6000E+01
 ETOT 12  -88.278492020296    -8.678E-09 3.968E-04 4.214E-04
 scprqt: <Vxc>= -3.2171020E-01 hartree

 Pulay update with  7 previous iterations:
 mixing of old trial potential: alpha(m:m-4)=  0.822      0.340     -0.190      0.997E-02  0.253E-01
{SCF_istep: 12 , Vnl|psi>: 12800 , wall_time: ' 10.80 [s] '} <<< TIME

 ITER STEP NUMBER    13
 Total charge density [el/Bohr^3]
      Maximum=    1.3696E+00  at reduced coord.    0.1667    0.1111    0.9583
      Minimum=    1.4687E-05  at reduced coord.    0.4444    0.3889    0.4896
   Integrated=    2.6000E+01
 ETOT 13  -88.278492041631    -2.134E-08 1.509E-04 3.596E-05
 scprqt: <Vxc>= -3.2171299E-01 hartree

 Pulay update with  7 previous iterations:
 mixing of old trial potential: alpha(m:m-4)=   1.05      0.164     -0.172     -0.309E-01 -0.700E-02
{SCF_istep: 13 , Vnl|psi>: 12800 , wall_time: ' 10.39 [s] '} <<< TIME

 ITER STEP NUMBER    14
 Total charge density [el/Bohr^3]
      Maximum=    1.3697E+00  at reduced coord.    0.1667    0.1111    0.9583
      Minimum=    1.4684E-05  at reduced coord.    0.4444    0.3889    0.4896
   Integrated=    2.6000E+01
 ETOT 14  -88.278492043616    -1.985E-09 1.090E-04 4.008E-06
 scprqt: <Vxc>= -3.2171143E-01 hartree

 Pulay update with  7 previous iterations:
 mixing of old trial potential: alpha(m:m-4)=  0.900      0.352     -0.117     -0.145      0.156E-01
{SCF_istep: 14 , Vnl|psi>: 12800 , wall_time: ' 10.47 [s] '} <<< TIME

 ITER STEP NUMBER    15
 Total charge density [el/Bohr^3]
      Maximum=    1.3696E+00  at reduced coord.    0.1111    0.1667    0.9583
      Minimum=    1.4683E-05  at reduced coord.    0.4444    0.3889    0.4896
   Integrated=    2.6000E+01
 ETOT 15  -88.278492043724    -1.072E-10 5.568E-05 5.757E-06
 scprqt: <Vxc>= -3.2171157E-01 hartree

 Pulay update with  7 previous iterations:
 mixing of old trial potential: alpha(m:m-4)=  0.864      0.312     -0.621E-01 -0.122     -0.560E-02
{SCF_istep: 15 , Vnl|psi>: 12800 , wall_time: ' 10.33 [s] '} <<< TIME

 ITER STEP NUMBER    16
 Total charge density [el/Bohr^3]
      Maximum=    1.3696E+00  at reduced coord.    0.1111    0.1667    0.9583
      Minimum=    1.4682E-05  at reduced coord.    0.4444    0.3889    0.4896
   Integrated=    2.6000E+01
 ETOT 16  -88.278492043986    -2.622E-10 3.890E-05 7.285E-07
 scprqt: <Vxc>= -3.2171155E-01 hartree

 Pulay update with  7 previous iterations:
 mixing of old trial potential: alpha(m:m-4)=  0.662      0.306      0.447E-01  0.212E-02 -0.191E-01
{SCF_istep: 16 , Vnl|psi>: 12800 , wall_time: ' 10.40 [s] '} <<< TIME

 ITER STEP NUMBER    17
 Total charge density [el/Bohr^3]
      Maximum=    1.3697E+00  at reduced coord.    0.1667    0.1111    0.9583
      Minimum=    1.4682E-05  at reduced coord.    0.4444    0.3889    0.4896
   Integrated=    2.6000E+01
 ETOT 17  -88.278492044025    -3.979E-11 2.004E-05 4.392E-08
 scprqt: <Vxc>= -3.2171163E-01 hartree

 Pulay update with  7 previous iterations:
 mixing of old trial potential: alpha(m:m-4)=   1.05      0.496E-03 -0.137E-01 -0.386E-01  0.592E-02
{SCF_istep: 17 , Vnl|psi>: 12792 , wall_time: ' 10.33 [s] '} <<< TIME

 ITER STEP NUMBER    18
 Total charge density [el/Bohr^3]
      Maximum=    1.3696E+00  at reduced coord.    0.1111    0.1667    0.9583
      Minimum=    1.4683E-05  at reduced coord.    0.4444    0.3889    0.4896
   Integrated=    2.6000E+01
 ETOT 18  -88.278492044026    -1.421E-13 1.377E-05 1.042E-09
 scprqt: <Vxc>= -3.2171169E-01 hartree

 Pulay update with  7 previous iterations:
 mixing of old trial potential: alpha(m:m-4)=   1.21     -0.109     -0.728E-01 -0.232E-01 -0.964E-03
{SCF_istep: 18 , Vnl|psi>: 12800 , wall_time: ' 10.40 [s] '} <<< TIME

 ITER STEP NUMBER    19
 Total charge density [el/Bohr^3]
      Maximum=    1.3696E+00  at reduced coord.    0.1667    0.1111    0.9583
      Minimum=    1.4683E-05  at reduced coord.    0.4444    0.3889    0.4896
   Integrated=    2.6000E+01
 ETOT 19  -88.278492044022     3.624E-12 7.135E-06 4.736E-10
 scprqt: <Vxc>= -3.2171170E-01 hartree

 Pulay update with  7 previous iterations:
 mixing of old trial potential: alpha(m:m-4)=  0.840      0.148      0.347E-01 -0.143E-01 -0.780E-02
{SCF_istep: 19 , Vnl|psi>: 12800 , wall_time: ' 10.35 [s] '} <<< TIME

 ITER STEP NUMBER    20
 Total charge density [el/Bohr^3]
      Maximum=    1.3696E+00  at reduced coord.    0.1111    0.1667    0.9583
      Minimum=    1.4683E-05  at reduced coord.    0.4444    0.3889    0.4896
   Integrated=    2.6000E+01
 ETOT 20  -88.278492044029    -6.722E-12 4.864E-06 1.040E-10
 scprqt: <Vxc>= -3.2171170E-01 hartree

 Pulay update with  7 previous iterations:
 mixing of old trial potential: alpha(m:m-4)=   1.22     -0.361E-01 -0.254      0.535E-01  0.136E-01
{SCF_istep: 20 , Vnl|psi>: 12800 , wall_time: ' 10.34 [s] '} <<< TIME

 ITER STEP NUMBER    21
 Total charge density [el/Bohr^3]
      Maximum=    1.3696E+00  at reduced coord.    0.1111    0.1667    0.9583
      Minimum=    1.4683E-05  at reduced coord.    0.4444    0.3889    0.4896
   Integrated=    2.6000E+01
 ETOT 21  -88.278492044020     8.967E-12 2.532E-06 3.170E-12
 scprqt: <Vxc>= -3.2171170E-01 hartree

 Pulay update with  7 previous iterations:
 mixing of old trial potential: alpha(m:m-4)=  0.888      0.151     -0.214E-01 -0.280E-01  0.877E-02
{SCF_istep: 21 , Vnl|psi>: 12782 , wall_time: ' 10.51 [s] '} <<< TIME

 ITER STEP NUMBER    22
 Total charge density [el/Bohr^3]
      Maximum=    1.3696E+00  at reduced coord.    0.1111    0.1667    0.9583
      Minimum=    1.4683E-05  at reduced coord.    0.4444    0.3889    0.4896
   Integrated=    2.6000E+01
 ETOT 22  -88.278492044021    -1.549E-12 1.718E-06 2.463E-13
 scprqt: <Vxc>= -3.2171170E-01 hartree

 Pulay update with  7 previous iterations:
 mixing of old trial potential: alpha(m:m-4)=   1.36     -0.379      0.205E-01  0.150E-02 -0.905E-02
{SCF_istep: 22 , Vnl|psi>: 12790 , wall_time: ' 10.43 [s] '} <<< TIME

 ITER STEP NUMBER    23
 Total charge density [el/Bohr^3]
      Maximum=    1.3696E+00  at reduced coord.    0.1111    0.1667    0.9583
      Minimum=    1.4683E-05  at reduced coord.    0.4444    0.3889    0.4896
   Integrated=    2.6000E+01
 ETOT 23  -88.278492044027    -5.741E-12 8.972E-07 1.323E-14
 scprqt: <Vxc>= -3.2171170E-01 hartree

 Pulay update with  7 previous iterations:
 mixing of old trial potential: alpha(m:m-4)=  0.724      0.327     -0.489E-01 -0.160E-02 -0.120E-02
{SCF_istep: 23 , Vnl|psi>: 12788 , wall_time: ' 10.40 [s] '} <<< TIME

 ITER STEP NUMBER    24
 Total charge density [el/Bohr^3]
      Maximum=    1.3696E+00  at reduced coord.    0.1111    0.1667    0.9583
      Minimum=    1.4683E-05  at reduced coord.    0.4444    0.3889    0.4896
   Integrated=    2.6000E+01
 ETOT 24  -88.278492044028    -1.378E-12 6.072E-07 3.413E-16
 scprqt: <Vxc>= -3.2171170E-01 hartree

 Pulay update with  7 previous iterations:
 mixing of old trial potential: alpha(m:m-4)=  0.939      0.178E-01  0.598E-01 -0.152E-01 -0.105E-02
{SCF_istep: 24 , Vnl|psi>: 7653 , wall_time: '  6.50 [s] '} <<< TIME

 ITER STEP NUMBER    25
 Total charge density [el/Bohr^3]
      Maximum=    1.3696E+00  at reduced coord.    0.1111    0.1667    0.9583
      Minimum=    1.4683E-05  at reduced coord.    0.4444    0.3889    0.4896
   Integrated=    2.6000E+01
 ETOT 25  -88.278492044024     4.093E-12 3.386E-07 5.635E-18
 scprqt: <Vxc>= -3.2171170E-01 hartree

 Pulay update with  7 previous iterations:
 mixing of old trial potential: alpha(m:m-4)=   1.04     -0.101      0.454E-01  0.189E-01 -0.527E-02
 
 -------------------------------------------------------------------------------------------------
 Ekinetic   = :     4.154330E+01 Ha ,    1.130451E+03 eV
 Evext_l    = :    -4.838795E+02 Ha ,   -1.316703E+04 eV
 Evext_nl   = :     1.238451E+01 Ha ,    3.369996E+02 eV
 Epsp_core  = :     2.948995E+00 Ha ,    8.024623E+01 eV
 Ehartree   = :     2.189898E+02 Ha ,    5.959015E+03 eV
 Exc_ks     = :    -1.929466E+01 Ha ,   -5.250344E+02 eV
 Enn        = :     1.390291E+02 Ha ,    3.783175E+03 eV
 -------------------------------------------------------------------------------------------------
 Etot       = :    -8.827849E+01 Ha ,   -2.402180E+03 eV
 -------------------------------------------------------------------------------------------------

 Cartesian components of stress tensor (hartree/bohr^3)
  sigma(1 1)= -1.73356142E-02  sigma(3 2)=  9.03775962E-03
  sigma(2 2)= -1.73356142E-02  sigma(3 1)=  9.03775962E-03
  sigma(3 3)= -3.67297169E-02  sigma(2 1)=  4.46474619E-04


--- !ScfConvergenceWarning
message: |
    nstep 25 was not enough SCF cycles to converge.
...

 scprqt:  WARNING -
  nstep=   25 was not enough SCF cycles to converge;
  maximum residual each band. tolwfr=   1.000E-20
  iband, isppol, individual band residuals (max over all k-points):
     1     1  1.540E-21
     2     1  6.166E-21
     3     1  6.872E-21
     4     1  8.058E-21
     5     1  2.209E-21
     6     1  5.450E-21
     7     1  3.435E-21
     8     1  2.511E-21
     9     1  4.941E-21
    10     1  2.229E-21
    11     1  8.501E-21
    12     1  6.683E-21
    13     1  8.199E-21
    14     1  6.606E-21
    15     1  8.039E-21
    16     1  8.063E-21
    17     1  9.772E-21
    18     1  1.523E-17
    19     1  1.000E-11
    20     1  3.386E-07
  maximum residual=  3.386E-07 exceeds tolwfr=  1.000E-20


 fftdatar_write: About to write data to: o_DS1_DEN with iomode: IO_MODE_FORTRAN
 IO operation completed. cpu:  0.00 [s] , wall:  0.00 [s] <<< TIME
- Creating netcdf file WITHOUT MPI-IO support: o_DS1_GSR.nc
 Integrated electronic density in atomic spheres:
 ------------------------------------------------
 Atom  Sphere_radius  Integrated_density
    1        2.00000         14.90852425
    2        2.00000          8.41554780
    3        2.00000          7.22354951
================================================================================

 ----iterations are completed or convergence reached----

 Mean square residual over all n,k,spin=   44.353E-11; max=  33.856E-08
  -0.2500 -0.1250  0.0000    1  2.46884E-17 kpt; spin; max resid(k); each band:
  1.98E-22 3.27E-22 1.29E-21 1.14E-21 1.55E-21 2.90E-22 2.19E-21 1.46E-21
  1.85E-21 1.97E-21 2.33E-21 5.73E-21 3.56E-21 2.39E-21 5.27E-21 1.79E-21
  9.03E-21 7.47E-21 1.85E-20 2.47E-17
  -0.1250 -0.1250  0.1250    1  3.03425E-15 kpt; spin; max resid(k); each band:
  2.04E-22 2.75E-22 6.87E-21 1.15E-21 1.38E-21 2.56E-22 1.53E-21 2.97E-22
  1.47E-21 1.84E-21 2.17E-21 4.79E-21 3.82E-21 3.38E-21 3.54E-21 8.06E-21
  6.17E-21 5.64E-21 1.17E-20 3.03E-15
  -0.1250 -0.2500  0.0000    1  2.36783E-17 kpt; spin; max resid(k); each band:
  1.98E-22 3.27E-22 1.30E-21 1.13E-21 1.55E-21 2.91E-22 2.18E-21 1.45E-21
  1.86E-21 1.97E-21 2.35E-21 5.72E-21 3.60E-21 2.39E-21 5.32E-21 1.80E-21
  8.81E-21 5.93E-21 1.80E-20 2.37E-17
   0.5000 -0.1250  0.0000    1  1.14028E-12 kpt; spin; max resid(k); each band:
  1.80E-22 1.48E-21 1.59E-21 1.13E-21 1.38E-21 1.54E-21 2.02E-22 1.71E-21
  1.50E-21 1.68E-21 2.14E-21 2.96E-21 2.94E-21 2.03E-21 2.73E-21 1.87E-21
  5.11E-21 3.23E-18 1.20E-15 1.14E-12
  -0.3750 -0.1250  0.1250    1  1.32609E-14 kpt; spin; max resid(k); each band:
  1.94E-22 6.57E-22 1.47E-21 1.16E-21 1.68E-21 1.82E-21 4.98E-22 1.63E-21
  1.85E-21 2.15E-21 3.11E-21 3.20E-21 3.37E-21 2.75E-21 1.61E-21 2.47E-21
  5.62E-21 8.72E-21 3.02E-20 1.33E-14
  -0.2500 -0.1250  0.2500    1  1.36058E-20 kpt; spin; max resid(k); each band:
  1.98E-22 3.26E-22 1.29E-21 1.13E-21 1.52E-21 2.91E-22 2.20E-21 1.45E-21
  1.85E-21 1.99E-21 2.30E-21 5.30E-21 3.34E-21 2.27E-21 4.85E-21 1.84E-21
  8.70E-21 5.18E-21 1.36E-20 1.00E-20
  -0.1250 -0.1250  0.3750    1  3.03286E-19 kpt; spin; max resid(k); each band:
  2.03E-22 2.75E-22 6.87E-21 1.12E-21 1.33E-21 2.56E-22 1.58E-21 2.99E-22
  1.47E-21 1.85E-21 2.03E-21 5.01E-21 4.62E-21 2.98E-21 8.01E-21 2.46E-21
  6.33E-21 7.28E-21 6.48E-21 3.03E-19
  -0.3750 -0.2500  0.0000    1  9.53636E-15 kpt; spin; max resid(k); each band:
[...]
                      -1.25000000E-01 -1.25000000E-01  1.25000000E-01
                      -1.25000000E-01 -2.50000000E-01  0.00000000E+00
                       5.00000000E-01 -1.25000000E-01  0.00000000E+00
                      -3.75000000E-01 -1.25000000E-01  1.25000000E-01
                      -2.50000000E-01 -1.25000000E-01  2.50000000E-01
                      -1.25000000E-01 -1.25000000E-01  3.75000000E-01
                      -3.75000000E-01 -2.50000000E-01  0.00000000E+00
                      -2.50000000E-01 -2.50000000E-01  1.25000000E-01
                      -1.25000000E-01 -2.50000000E-01  2.50000000E-01
                       2.50000000E-01 -1.25000000E-01  0.00000000E+00
                       3.75000000E-01 -1.25000000E-01  1.25000000E-01
                       5.00000000E-01 -1.25000000E-01  2.50000000E-01
                      -3.75000000E-01 -1.25000000E-01  3.75000000E-01
                      -2.50000000E-01 -1.25000000E-01  5.00000000E-01
                      -1.25000000E-01 -1.25000000E-01 -3.75000000E-01
                      -2.50000000E-01 -3.75000000E-01  0.00000000E+00
                      -1.25000000E-01 -3.75000000E-01  1.25000000E-01
                       3.75000000E-01 -2.50000000E-01  0.00000000E+00
                       5.00000000E-01 -2.50000000E-01  1.25000000E-01
                      -3.75000000E-01 -2.50000000E-01  2.50000000E-01
                      -2.50000000E-01 -2.50000000E-01  3.75000000E-01
                      -1.25000000E-01 -2.50000000E-01  5.00000000E-01
                       0.00000000E+00 -1.25000000E-01  0.00000000E+00
                       1.25000000E-01 -1.25000000E-01  1.25000000E-01
                       2.50000000E-01 -1.25000000E-01  2.50000000E-01
                       3.75000000E-01 -1.25000000E-01  3.75000000E-01
                       5.00000000E-01 -1.25000000E-01  5.00000000E-01
                      -3.75000000E-01 -1.25000000E-01 -3.75000000E-01
                      -2.50000000E-01 -1.25000000E-01 -2.50000000E-01
                      -1.25000000E-01 -1.25000000E-01 -1.25000000E-01
                      -1.25000000E-01  5.00000000E-01  0.00000000E+00
                       5.00000000E-01 -3.75000000E-01  0.00000000E+00
                      -3.75000000E-01 -3.75000000E-01  1.25000000E-01
                      -2.50000000E-01 -3.75000000E-01  2.50000000E-01
                      -1.25000000E-01 -3.75000000E-01  3.75000000E-01
                       1.25000000E-01 -2.50000000E-01  0.00000000E+00
                       2.50000000E-01 -2.50000000E-01  1.25000000E-01
                       3.75000000E-01 -2.50000000E-01  2.50000000E-01
                       5.00000000E-01 -2.50000000E-01  3.75000000E-01
                      -3.75000000E-01 -2.50000000E-01  5.00000000E-01
                      -2.50000000E-01 -2.50000000E-01 -3.75000000E-01
                      -1.25000000E-01 -2.50000000E-01 -2.50000000E-01
                       0.00000000E+00 -1.25000000E-01  2.50000000E-01
                       1.25000000E-01 -1.25000000E-01  3.75000000E-01
                       2.50000000E-01 -1.25000000E-01  5.00000000E-01
                       3.75000000E-01 -1.25000000E-01 -3.75000000E-01
                       5.00000000E-01 -1.25000000E-01 -2.50000000E-01
                      -3.75000000E-01 -1.25000000E-01 -1.25000000E-01
                      -3.75000000E-01  5.00000000E-01  0.00000000E+00
                       outvar_i_n : Printing only first  50 k-points.
           kptopt1          1
           kptopt2          1
           kptopt3          3
           kptopt4          3
           kptopt5          3
           kptopt6          3
         kptrlatt        8    0    0      0    8    0     -4  -12    4
          kptrlen      3.41108311E+01
P           mkmem1        128
P           mkmem2        128
P           mkmem3        256
P           mkmem4        256
P           mkmem5        256
P           mkmem6        256
P          mkqmem1        128
P          mkqmem2        128
P          mkqmem3        256
P          mkqmem4        256
P          mkqmem5        256
P          mkqmem6        256
P          mk1mem1        128
P          mk1mem2        128
P          mk1mem3        256
P          mk1mem4        256
P          mk1mem5        256
P          mk1mem6        256
            natom           3
            nband1         20
            nband2         40
            nband3         40
            nband4         40
            nband5         40
            nband6         40
           nbdbuf1          0
           nbdbuf2          2
           nbdbuf3          2
           nbdbuf4          2
           nbdbuf5          2
           nbdbuf6          2
           ndtset           6
            ngfft          18      18      96
             nkpt1        128
             nkpt2        128
             nkpt3        256
             nkpt4        256
             nkpt5        256
             nkpt6        256
            nline1          4
            nline2          4
            nline3          4
            nline4          0
            nline5          0
            nline6          0
             nqpt1          0
             nqpt2          0
             nqpt3          0
             nqpt4          1
             nqpt5          1
             nqpt6          1
            nstep1         25
            nstep2         25
            nstep3         25
            nstep4          1
            nstep5          1
            nstep6          1
             nsym           1
           ntypat           2
              occ1     2.000000  2.000000  2.000000  2.000000  2.000000  2.000000
                       2.000000  2.000000  2.000000  2.000000  2.000000  2.000000
                       2.000000  0.000000  0.000000  0.000000  0.000000  0.000000
                       0.000000  0.000000
              occ4     2.000000  2.000000  2.000000  2.000000  2.000000  2.000000
                       2.000000  2.000000  2.000000  2.000000  2.000000  2.000000
                       2.000000  0.000000  0.000000  0.000000  0.000000  0.000000
                       0.000000  0.000000  0.000000  0.000000  0.000000  0.000000
                       0.000000  0.000000  0.000000  0.000000  0.000000  0.000000
                       0.000000  0.000000  0.000000  0.000000  0.000000  0.000000
                       0.000000  0.000000  0.000000  0.000000
              occ5     2.000000  2.000000  2.000000  2.000000  2.000000  2.000000
                       2.000000  2.000000  2.000000  2.000000  2.000000  2.000000
                       2.000000  0.000000  0.000000  0.000000  0.000000  0.000000
                       0.000000  0.000000  0.000000  0.000000  0.000000  0.000000
                       0.000000  0.000000  0.000000  0.000000  0.000000  0.000000
                       0.000000  0.000000  0.000000  0.000000  0.000000  0.000000
                       0.000000  0.000000  0.000000  0.000000
              occ6     2.000000  2.000000  2.000000  2.000000  2.000000  2.000000
                       2.000000  2.000000  2.000000  2.000000  2.000000  2.000000
                       2.000000  0.000000  0.000000  0.000000  0.000000  0.000000
                       0.000000  0.000000  0.000000  0.000000  0.000000  0.000000
                       0.000000  0.000000  0.000000  0.000000  0.000000  0.000000
                       0.000000  0.000000  0.000000  0.000000  0.000000  0.000000
                       0.000000  0.000000  0.000000  0.000000
        optdriver1          0
        optdriver2          0
        optdriver3          0
        optdriver4          1
        optdriver5          1
        optdriver6          1
            prtwf1          1
            prtwf2          1
            prtwf3          1
            prtwf4          3
            prtwf5          3
            prtwf6          3
            rfdir1          0       0       0
            rfdir2          0       0       0
            rfdir3          0       0       0
            rfdir4          1       0       0
            rfdir5          0       1       0
            rfdir6          0       0       1
           rfelfd1          0
           rfelfd2          0
           rfelfd3          0
           rfelfd4          2
           rfelfd5          2
           rfelfd6          2
            rprim      0.0000000000E+00  5.0000000000E-01  5.0000000000E-01
                       5.0000000000E-01  0.0000000000E+00  5.0000000000E-01
                       5.0000000000E-01  5.0000000000E-01  0.0000000000E+00
           shiftk      0.00000000E+00  0.00000000E+00  5.00000000E-01
          spgroup           1
           strten1    -1.7335614205E-02 -1.7335614204E-02 -3.6729716941E-02
                       9.0377596206E-03  9.0377596199E-03  4.4647461867E-04
           tolwfr      1.00000000E-20
            typat      1  2  2
              wtk1       0.00781    0.00781    0.00781    0.00781    0.00781    0.00781
                         0.00781    0.00781    0.00781    0.00781    0.00781    0.00781
                         0.00781    0.00781    0.00781    0.00781    0.00781    0.00781
                         0.00781    0.00781    0.00781    0.00781    0.00781    0.00781
                         0.00781    0.00781    0.00781    0.00781    0.00781    0.00781
                         0.00781    0.00781    0.00781    0.00781    0.00781    0.00781
                         0.00781    0.00781    0.00781    0.00781    0.00781    0.00781
                         0.00781    0.00781    0.00781    0.00781    0.00781    0.00781
                         0.00781    0.00781
              wtk2       0.00781    0.00781    0.00781    0.00781    0.00781    0.00781
                         0.00781    0.00781    0.00781    0.00781    0.00781    0.00781
                         0.00781    0.00781    0.00781    0.00781    0.00781    0.00781
                         0.00781    0.00781    0.00781    0.00781    0.00781    0.00781
                         0.00781    0.00781    0.00781    0.00781    0.00781    0.00781
                         0.00781    0.00781    0.00781    0.00781    0.00781    0.00781
                         0.00781    0.00781    0.00781    0.00781    0.00781    0.00781
                         0.00781    0.00781    0.00781    0.00781    0.00781    0.00781
                         0.00781    0.00781
              wtk3       0.00391    0.00391    0.00391    0.00391    0.00391    0.00391
                         0.00391    0.00391    0.00391    0.00391    0.00391    0.00391
                         0.00391    0.00391    0.00391    0.00391    0.00391    0.00391
                         0.00391    0.00391    0.00391    0.00391    0.00391    0.00391
                         0.00391    0.00391    0.00391    0.00391    0.00391    0.00391
                         0.00391    0.00391    0.00391    0.00391    0.00391    0.00391
                         0.00391    0.00391    0.00391    0.00391    0.00391    0.00391
                         0.00391    0.00391    0.00391    0.00391    0.00391    0.00391
                         0.00391    0.00391
              wtk4       0.00391    0.00391    0.00391    0.00391    0.00391    0.00391
                         0.00391    0.00391    0.00391    0.00391    0.00391    0.00391
                         0.00391    0.00391    0.00391    0.00391    0.00391    0.00391
                         0.00391    0.00391    0.00391    0.00391    0.00391    0.00391
                         0.00391    0.00391    0.00391    0.00391    0.00391    0.00391
                         0.00391    0.00391    0.00391    0.00391    0.00391    0.00391
                         0.00391    0.00391    0.00391    0.00391    0.00391    0.00391
                         0.00391    0.00391    0.00391    0.00391    0.00391    0.00391
                         0.00391    0.00391
              wtk5       0.00391    0.00391    0.00391    0.00391    0.00391    0.00391
                         0.00391    0.00391    0.00391    0.00391    0.00391    0.00391
                         0.00391    0.00391    0.00391    0.00391    0.00391    0.00391
                         0.00391    0.00391    0.00391    0.00391    0.00391    0.00391
                         0.00391    0.00391    0.00391    0.00391    0.00391    0.00391
                         0.00391    0.00391    0.00391    0.00391    0.00391    0.00391
                         0.00391    0.00391    0.00391    0.00391    0.00391    0.00391
                         0.00391    0.00391    0.00391    0.00391    0.00391    0.00391
                         0.00391    0.00391
              wtk6       0.00391    0.00391    0.00391    0.00391    0.00391    0.00391
                         0.00391    0.00391    0.00391    0.00391    0.00391    0.00391
                         0.00391    0.00391    0.00391    0.00391    0.00391    0.00391
                         0.00391    0.00391    0.00391    0.00391    0.00391    0.00391
                         0.00391    0.00391    0.00391    0.00391    0.00391    0.00391
                         0.00391    0.00391    0.00391    0.00391    0.00391    0.00391
                         0.00391    0.00391    0.00391    0.00391    0.00391    0.00391
                         0.00391    0.00391    0.00391    0.00391    0.00391    0.00391
                         0.00391    0.00391
                       outvars : Printing only first  50 k-points.
           xangst      0.0000000000E+00  0.0000000000E+00  0.0000000000E+00
                      -3.2307856116E-01 -3.2307856116E-01  1.0636461893E+00
                       1.3867247504E+00  1.3867247504E+00  1.0636461893E+00
            xcart      0.0000000000E+00  0.0000000000E+00  0.0000000000E+00
                      -6.1053000000E-01 -6.1053000000E-01  2.0100000000E+00
                       2.6205300000E+00  2.6205300000E+00  2.0100000000E+00
             xred      0.0000000000E+00  0.0000000000E+00  0.0000000000E+00
                       3.3333333333E-01  3.3333333333E-01 -9.8000000000E-02
                       3.3333333333E-01  3.3333333333E-01  9.8000000000E-02
            znucl       42.00000   16.00000

================================================================================
  

================================================================================

 Suggested references for the acknowledgment of ABINIT usage.

 The users of ABINIT have little formal obligations with respect to the ABINIT group
 (those specified in the GNU General Public License, http://www.gnu.org/copyleft/gpl.txt).
 However, it is common practice in the scientific literature,
 to acknowledge the efforts of people that have made the research possible.
 In this spirit, please find below suggested citations of work written by ABINIT developers,
 corresponding to implementations inside of ABINIT that you have used in the present run.
 Note also that it will be of great value to readers of publications presenting these results,
 to read papers enabling them to understand the theoretical formalism and details
 of the ABINIT implementation.
 For information on why they are suggested, see also https://docs.abinit.org/theory/acknowledgments.
-
- [1] The Abinit project: Impact, environment and recent developments.
- Computer Phys. Comm. 248, 107042 (2020).
- X.Gonze, B. Amadon, G. Antonius, F.Arnardi, L.Baguet, J.-M.Beuken,
- J.Bieder, F.Bottin, J.Bouchet, E.Bousquet, N.Brouwer, F.Bruneval,
- G.Brunin, T.Cavignac, J.-B. Charraud, Wei Chen, M.Cote, S.Cottenier,
- J.Denier, G.Geneste, Ph.Ghosez, M.Giantomassi, Y.Gillet, O.Gingras,
- D.R.Hamann, G.Hautier, Xu He, N.Helbig, N.Holzwarth, Y.Jia, F.Jollet,
- W.Lafargue-Dit-Hauret, K.Lejaeghere, M.A.L.Marques, A.Martin, C.Martins,
- H.P.C. Miranda, F.Naccarato, K. Persson, G.Petretto, V.Planes, Y.Pouillon,
- S.Prokhorenko, F.Ricci, G.-M.Rignanese, A.H.Romero, M.M.Schmitt, M.Torrent,
- M.J.van Setten, B.Van Troeye, M.J.Verstraete, G.Zerah and J.W.Zwanzig
- Comment: the fifth generic paper describing the ABINIT project.
- Note that a version of this paper, that is not formatted for Computer Phys. Comm. 
- is available at https://www.abinit.org/sites/default/files/ABINIT20.pdf .
- The licence allows the authors to put it on the Web.
- DOI and bibtex: see https://docs.abinit.org/theory/bibliography/#gonze2020
-
- [2] First-principles responses of solids to atomic displacements and homogeneous electric fields:,
- implementation of a conjugate-gradient algorithm. X. Gonze, Phys. Rev. B55, 10337 (1997).
- Comment: Non-vanishing rfphon and/or rfelfd, in the norm-conserving case.
- DOI and bibtex: see https://docs.abinit.org/theory/bibliography/#gonze1997
-
- [3] Dynamical matrices, Born effective charges, dielectric permittivity tensors, and ,
- interatomic force constants from density-functional perturbation theory,
- X. Gonze and C. Lee, Phys. Rev. B55, 10355 (1997).
- Comment: Non-vanishing rfphon and/or rfelfd, in the norm-conserving case.
- DOI and bibtex: see https://docs.abinit.org/theory/bibliography/#gonze1997a
-
- [4] Optimized norm-conserving Vanderbilt pseudopotentials.
- D.R. Hamann, Phys. Rev. B 88, 085117 (2013).
- Comment: Some pseudopotential generated using the ONCVPSP code were used.
- DOI and bibtex: see https://docs.abinit.org/theory/bibliography/#hamann2013
-
- [5] ABINIT: Overview, and focus on selected capabilities
- J. Chem. Phys. 152, 124102 (2020).
- A. Romero, D.C. Allan, B. Amadon, G. Antonius, T. Applencourt, L.Baguet,
- J.Bieder, F.Bottin, J.Bouchet, E.Bousquet, F.Bruneval,
- G.Brunin, D.Caliste, M.Cote,
- J.Denier, C. Dreyer, Ph.Ghosez, M.Giantomassi, Y.Gillet, O.Gingras,
- D.R.Hamann, G.Hautier, F.Jollet, G. Jomard,
- A.Martin, 
- H.P.C. Miranda, F.Naccarato, G.Petretto, N.A. Pike, V.Planes,
- S.Prokhorenko, T. Rangel, F.Ricci, G.-M.Rignanese, M.Royo, M.Stengel, M.Torrent,
- M.J.van Setten, B.Van Troeye, M.J.Verstraete, J.Wiktor, J.W.Zwanziger, and X.Gonze.
- Comment: a global overview of ABINIT, with focus on selected capabilities .
- Note that a version of this paper, that is not formatted for J. Chem. Phys 
- is available at https://www.abinit.org/sites/default/files/ABINIT20_JPC.pdf .
- The licence allows the authors to put it on the Web.
- DOI and bibtex: see https://docs.abinit.org/theory/bibliography/#romero2020
-
- [6] Recent developments in the ABINIT software package.
- Computer Phys. Comm. 205, 106 (2016).
- X.Gonze, F.Jollet, F.Abreu Araujo, D.Adams, B.Amadon, T.Applencourt,
- C.Audouze, J.-M.Beuken, J.Bieder, A.Bokhanchuk, E.Bousquet, F.Bruneval
- D.Caliste, M.Cote, F.Dahm, F.Da Pieve, M.Delaveau, M.Di Gennaro,
- B.Dorado, C.Espejo, G.Geneste, L.Genovese, A.Gerossier, M.Giantomassi,
- Y.Gillet, D.R.Hamann, L.He, G.Jomard, J.Laflamme Janssen, S.Le Roux,
- A.Levitt, A.Lherbier, F.Liu, I.Lukacevic, A.Martin, C.Martins,
- M.J.T.Oliveira, S.Ponce, Y.Pouillon, T.Rangel, G.-M.Rignanese,
- A.H.Romero, B.Rousseau, O.Rubel, A.A.Shukri, M.Stankovski, M.Torrent,
- M.J.Van Setten, B.Van Troeye, M.J.Verstraete, D.Waroquier, J.Wiktor,
- B.Xu, A.Zhou, J.W.Zwanziger.
- Comment: the fourth generic paper describing the ABINIT project.
- Note that a version of this paper, that is not formatted for Computer Phys. Comm. 
- is available at https://www.abinit.org/sites/default/files/ABINIT16.pdf .
- The licence allows the authors to put it on the Web.
- DOI and bibtex: see https://docs.abinit.org/theory/bibliography/#gonze2016
 Proc.   0 individual time (sec): cpu=        593.1  wall=        601.7

 Calculation completed.
.Delivered  59 WARNINGs and  11 COMMENTs to log file.

--- !FinalSummary
program: abinit
version: 9.6.2
start_datetime: Thu Dec 15 09:21:30 2022
end_datetime: Thu Dec 15 09:31:32 2022
overall_cpu_time:         593.1
overall_wall_time:         601.7
exit_requested_by_user: no 
timelimit: 0
pseudos: 
    Mo  : 228091cb5782e08cb8d68936b3c7e57b
    S   : bfa270bf1631b0df1a1d98e9ab044d60
usepaw: 0
mpi_procs: 1
omp_threads: 1
num_warnings: 59
num_comments: 11
...
