
.Version 9.6.2 of ABINIT 
.(MPI version, prepared for a x86_64_linux_gnu11.2 computer) 

.Copyright (C) 1998-2021 ABINIT group . 
 ABINIT comes with ABSOLUTELY NO WARRANTY.
 It is free software, and you are welcome to redistribute it
 under certain conditions (GNU General Public License,
 see ~abinit/COPYING or http://www.gnu.org/copyleft/gpl.txt).

 ABINIT is a project of the Universite Catholique de Louvain,
 Corning Inc. and other collaborators, see ~abinit/doc/developers/contributors.txt .
 Please read https://docs.abinit.org/theory/acknowledgments for suggested
 acknowledgments of the ABINIT effort.
 For more information, see https://www.abinit.org .

.Starting date : Thu 15 Dec 2022.
- ( at 09h21 )
  
- input  file    -> mommat
- output file    -> mommat.abo
- root for input  files -> i
- root for output files -> o


 DATASET    1 : space group P1 (#  1); Bravais aP (primitive triclinic)
================================================================================
 Values of the parameters that define the memory need for DATASET  1.
     intxc =       0    ionmov =       0      iscf =       7    lmnmax =       6
     lnmax =       6     mgfft =      96  mpssoang =       3    mqgrid =    3833
     natom =       3  nloc_mem =       1    nspden =       1   nspinor =       1
    nsppol =       1      nsym =       1    n1xccc =    2501    ntypat =       2
    occopt =       1   xclevel =       2
-    mband =          20        mffmem =           1         mkmem =         128
       mpw =        1314          nfft =       31104          nkpt =         128
================================================================================
P This job should need less than                      64.366 Mbytes of memory.
  Rough estimation (10% accuracy) of disk space for files :
_ WF disk file :     51.330 Mbytes ; DEN or POT disk file :      0.239 Mbytes.
================================================================================


 DATASET    2 : space group P1 (#  1); Bravais aP (primitive triclinic)
================================================================================
 Values of the parameters that define the memory need for DATASET  2.
     intxc =       0    ionmov =       0      iscf =      -2    lmnmax =       6
     lnmax =       6     mgfft =      96  mpssoang =       3    mqgrid =    3833
     natom =       3  nloc_mem =       1    nspden =       1   nspinor =       1
    nsppol =       1      nsym =       1    n1xccc =    2501    ntypat =       2
    occopt =       1   xclevel =       2
-    mband =          40        mffmem =           1         mkmem =         128
       mpw =        1314          nfft =       31104          nkpt =         128
================================================================================
P This job should need less than                     112.377 Mbytes of memory.
  Rough estimation (10% accuracy) of disk space for files :
_ WF disk file :    102.658 Mbytes ; DEN or POT disk file :      0.239 Mbytes.
================================================================================


 DATASET    3 : space group P1 (#  1); Bravais aP (primitive triclinic)
================================================================================
 Values of the parameters that define the memory need for DATASET  3.
     intxc =       0    ionmov =       0      iscf =      -2    lmnmax =       6
     lnmax =       6     mgfft =      96  mpssoang =       3    mqgrid =    3833
     natom =       3  nloc_mem =       1    nspden =       1   nspinor =       1
    nsppol =       1      nsym =       1    n1xccc =    2501    ntypat =       2
    occopt =       1   xclevel =       2
-    mband =          40        mffmem =           1         mkmem =         256
       mpw =        1314          nfft =       31104          nkpt =         256
================================================================================
P This job should need less than                     217.857 Mbytes of memory.
  Rough estimation (10% accuracy) of disk space for files :
_ WF disk file :    205.315 Mbytes ; DEN or POT disk file :      0.239 Mbytes.
================================================================================


 DATASET    4 : space group P1 (#  1); Bravais aP (primitive triclinic)
================================================================================
 Values of the parameters that define the memory need for DATASET  4 (RF).
     intxc =       0      iscf =      -3    lmnmax =       6     lnmax =       6
     mgfft =      96  mpssoang =       3    mqgrid =    3833     natom =       3
  nloc_mem =       1    nspden =       1   nspinor =       1    nsppol =       1
      nsym =       1    n1xccc =    2501    ntypat =       2    occopt =       1
   xclevel =       2
-    mband =          40        mffmem =           1         mkmem =         256
-   mkqmem =         256        mk1mem =         256           mpw =        1314
      nfft =       31104          nkpt =         256
================================================================================
P This job should need less than                     638.975 Mbytes of memory.
  Rough estimation (10% accuracy) of disk space for files :
_ WF disk file :    205.315 Mbytes ; DEN or POT disk file :      0.239 Mbytes.
================================================================================


 DATASET    5 : space group P1 (#  1); Bravais aP (primitive triclinic)
================================================================================
 Values of the parameters that define the memory need for DATASET  5 (RF).
     intxc =       0      iscf =      -3    lmnmax =       6     lnmax =       6
     mgfft =      96  mpssoang =       3    mqgrid =    3833     natom =       3
  nloc_mem =       1    nspden =       1   nspinor =       1    nsppol =       1
      nsym =       1    n1xccc =    2501    ntypat =       2    occopt =       1
   xclevel =       2
-    mband =          40        mffmem =           1         mkmem =         256
-   mkqmem =         256        mk1mem =         256           mpw =        1314
      nfft =       31104          nkpt =         256
================================================================================
P This job should need less than                     638.975 Mbytes of memory.
  Rough estimation (10% accuracy) of disk space for files :
_ WF disk file :    205.315 Mbytes ; DEN or POT disk file :      0.239 Mbytes.
================================================================================


 DATASET    6 : space group P1 (#  1); Bravais aP (primitive triclinic)
================================================================================
 Values of the parameters that define the memory need for DATASET  6 (RF).
     intxc =       0      iscf =      -3    lmnmax =       6     lnmax =       6
     mgfft =      96  mpssoang =       3    mqgrid =    3833     natom =       3
  nloc_mem =       1    nspden =       1   nspinor =       1    nsppol =       1
      nsym =       1    n1xccc =    2501    ntypat =       2    occopt =       1
   xclevel =       2
-    mband =          40        mffmem =           1         mkmem =         256
-   mkqmem =         256        mk1mem =         256           mpw =        1314
      nfft =       31104          nkpt =         256
================================================================================
P This job should need less than                     638.975 Mbytes of memory.
  Rough estimation (10% accuracy) of disk space for files :
_ WF disk file :    205.315 Mbytes ; DEN or POT disk file :      0.239 Mbytes.
================================================================================

--------------------------------------------------------------------------------
------------- Echo of variables that govern the present computation ------------
--------------------------------------------------------------------------------
-
- outvars: echo of selected default values                                      
-   iomode0 =  0 , fftalg0 =112 , wfoptalg0 =  0
-
- outvars: echo of global parameters not present in the input file              
-  max_nthreads =    0
-
 -outvars: echo values of preprocessed input variables --------
            acell      6.0300000000E+00  6.0300000000E+00  3.2970000000E+01 Bohr
              amu      9.59400000E+01  3.20660000E+01
           diemac      1.00000000E+01
             ecut      2.00000000E+01 Hartree
-          fftalg         112
           getden1          0
           getden2          1
           getden3          1
           getden4          0
           getden5          0
           getden6          0
           getwfk1          0
           getwfk2          1
           getwfk3          2
           getwfk4          3
           getwfk5          3
           getwfk6          3
             iscf1          7
             iscf2         -2
             iscf3         -2
             iscf4         -3
             iscf5         -3
             iscf6         -3
              ixc          11
           jdtset        1    2    3    4    5    6
              kpt1    -2.50000000E-01 -1.25000000E-01  0.00000000E+00
                      -1.25000000E-01 -1.25000000E-01  1.25000000E-01
                      -1.25000000E-01 -2.50000000E-01  0.00000000E+00
                       5.00000000E-01 -1.25000000E-01  0.00000000E+00
                      -3.75000000E-01 -1.25000000E-01  1.25000000E-01
                      -2.50000000E-01 -1.25000000E-01  2.50000000E-01
                      -1.25000000E-01 -1.25000000E-01  3.75000000E-01
                      -3.75000000E-01 -2.50000000E-01  0.00000000E+00
                      -2.50000000E-01 -2.50000000E-01  1.25000000E-01
                      -1.25000000E-01 -2.50000000E-01  2.50000000E-01
                       2.50000000E-01 -1.25000000E-01  0.00000000E+00
                       3.75000000E-01 -1.25000000E-01  1.25000000E-01
                       5.00000000E-01 -1.25000000E-01  2.50000000E-01
                      -3.75000000E-01 -1.25000000E-01  3.75000000E-01
                      -2.50000000E-01 -1.25000000E-01  5.00000000E-01
                      -1.25000000E-01 -1.25000000E-01 -3.75000000E-01
                      -2.50000000E-01 -3.75000000E-01  0.00000000E+00
                      -1.25000000E-01 -3.75000000E-01  1.25000000E-01
                       3.75000000E-01 -2.50000000E-01  0.00000000E+00
                       5.00000000E-01 -2.50000000E-01  1.25000000E-01
                      -3.75000000E-01 -2.50000000E-01  2.50000000E-01
                      -2.50000000E-01 -2.50000000E-01  3.75000000E-01
                      -1.25000000E-01 -2.50000000E-01  5.00000000E-01
                       0.00000000E+00 -1.25000000E-01  0.00000000E+00
                       1.25000000E-01 -1.25000000E-01  1.25000000E-01
                       2.50000000E-01 -1.25000000E-01  2.50000000E-01
                       3.75000000E-01 -1.25000000E-01  3.75000000E-01
                       5.00000000E-01 -1.25000000E-01  5.00000000E-01
                      -3.75000000E-01 -1.25000000E-01 -3.75000000E-01
                      -2.50000000E-01 -1.25000000E-01 -2.50000000E-01
                      -1.25000000E-01 -1.25000000E-01 -1.25000000E-01
                      -1.25000000E-01  5.00000000E-01  0.00000000E+00
                       5.00000000E-01 -3.75000000E-01  0.00000000E+00
                      -3.75000000E-01 -3.75000000E-01  1.25000000E-01
                      -2.50000000E-01 -3.75000000E-01  2.50000000E-01
                      -1.25000000E-01 -3.75000000E-01  3.75000000E-01
                       1.25000000E-01 -2.50000000E-01  0.00000000E+00
                       2.50000000E-01 -2.50000000E-01  1.25000000E-01
                       3.75000000E-01 -2.50000000E-01  2.50000000E-01
                       5.00000000E-01 -2.50000000E-01  3.75000000E-01
                      -3.75000000E-01 -2.50000000E-01  5.00000000E-01
                      -2.50000000E-01 -2.50000000E-01 -3.75000000E-01
                      -1.25000000E-01 -2.50000000E-01 -2.50000000E-01
                       0.00000000E+00 -1.25000000E-01  2.50000000E-01
                       1.25000000E-01 -1.25000000E-01  3.75000000E-01
                       2.50000000E-01 -1.25000000E-01  5.00000000E-01
                       3.75000000E-01 -1.25000000E-01 -3.75000000E-01
                       5.00000000E-01 -1.25000000E-01 -2.50000000E-01
                      -3.75000000E-01 -1.25000000E-01 -1.25000000E-01
                      -3.75000000E-01  5.00000000E-01  0.00000000E+00
              kpt2    -2.50000000E-01 -1.25000000E-01  0.00000000E+00
                      -1.25000000E-01 -1.25000000E-01  1.25000000E-01
                      -1.25000000E-01 -2.50000000E-01  0.00000000E+00
                       5.00000000E-01 -1.25000000E-01  0.00000000E+00
                      -3.75000000E-01 -1.25000000E-01  1.25000000E-01
                      -2.50000000E-01 -1.25000000E-01  2.50000000E-01
                      -1.25000000E-01 -1.25000000E-01  3.75000000E-01
                      -3.75000000E-01 -2.50000000E-01  0.00000000E+00
                      -2.50000000E-01 -2.50000000E-01  1.25000000E-01
                      -1.25000000E-01 -2.50000000E-01  2.50000000E-01
                       2.50000000E-01 -1.25000000E-01  0.00000000E+00
                       3.75000000E-01 -1.25000000E-01  1.25000000E-01
                       5.00000000E-01 -1.25000000E-01  2.50000000E-01
                      -3.75000000E-01 -1.25000000E-01  3.75000000E-01
                      -2.50000000E-01 -1.25000000E-01  5.00000000E-01
                      -1.25000000E-01 -1.25000000E-01 -3.75000000E-01
                      -2.50000000E-01 -3.75000000E-01  0.00000000E+00
                      -1.25000000E-01 -3.75000000E-01  1.25000000E-01
                       3.75000000E-01 -2.50000000E-01  0.00000000E+00
                       5.00000000E-01 -2.50000000E-01  1.25000000E-01
                      -3.75000000E-01 -2.50000000E-01  2.50000000E-01
                      -2.50000000E-01 -2.50000000E-01  3.75000000E-01
                      -1.25000000E-01 -2.50000000E-01  5.00000000E-01
                       0.00000000E+00 -1.25000000E-01  0.00000000E+00
                       1.25000000E-01 -1.25000000E-01  1.25000000E-01
                       2.50000000E-01 -1.25000000E-01  2.50000000E-01
                       3.75000000E-01 -1.25000000E-01  3.75000000E-01
                       5.00000000E-01 -1.25000000E-01  5.00000000E-01
                      -3.75000000E-01 -1.25000000E-01 -3.75000000E-01
                      -2.50000000E-01 -1.25000000E-01 -2.50000000E-01
                      -1.25000000E-01 -1.25000000E-01 -1.25000000E-01
                      -1.25000000E-01  5.00000000E-01  0.00000000E+00
                       5.00000000E-01 -3.75000000E-01  0.00000000E+00
                      -3.75000000E-01 -3.75000000E-01  1.25000000E-01
                      -2.50000000E-01 -3.75000000E-01  2.50000000E-01
                      -1.25000000E-01 -3.75000000E-01  3.75000000E-01
                       1.25000000E-01 -2.50000000E-01  0.00000000E+00
                       2.50000000E-01 -2.50000000E-01  1.25000000E-01
                       3.75000000E-01 -2.50000000E-01  2.50000000E-01
                       5.00000000E-01 -2.50000000E-01  3.75000000E-01
                      -3.75000000E-01 -2.50000000E-01  5.00000000E-01
                      -2.50000000E-01 -2.50000000E-01 -3.75000000E-01
                      -1.25000000E-01 -2.50000000E-01 -2.50000000E-01
                       0.00000000E+00 -1.25000000E-01  2.50000000E-01
                       1.25000000E-01 -1.25000000E-01  3.75000000E-01
                       2.50000000E-01 -1.25000000E-01  5.00000000E-01
                       3.75000000E-01 -1.25000000E-01 -3.75000000E-01
                       5.00000000E-01 -1.25000000E-01 -2.50000000E-01
                      -3.75000000E-01 -1.25000000E-01 -1.25000000E-01
                      -3.75000000E-01  5.00000000E-01  0.00000000E+00
              kpt3    -2.50000000E-01 -1.25000000E-01  0.00000000E+00
                      -1.25000000E-01 -1.25000000E-01  1.25000000E-01
                      -1.25000000E-01 -2.50000000E-01  0.00000000E+00
                       5.00000000E-01 -1.25000000E-01  0.00000000E+00
                      -3.75000000E-01 -1.25000000E-01  1.25000000E-01
                      -2.50000000E-01 -1.25000000E-01  2.50000000E-01
                      -1.25000000E-01 -1.25000000E-01  3.75000000E-01
                      -3.75000000E-01 -2.50000000E-01  0.00000000E+00
                      -2.50000000E-01 -2.50000000E-01  1.25000000E-01
                      -1.25000000E-01 -2.50000000E-01  2.50000000E-01
                       2.50000000E-01 -1.25000000E-01  0.00000000E+00
                       3.75000000E-01 -1.25000000E-01  1.25000000E-01
                       5.00000000E-01 -1.25000000E-01  2.50000000E-01
                      -3.75000000E-01 -1.25000000E-01  3.75000000E-01
                      -2.50000000E-01 -1.25000000E-01  5.00000000E-01
                      -1.25000000E-01 -1.25000000E-01 -3.75000000E-01
                      -2.50000000E-01 -3.75000000E-01  0.00000000E+00
                      -1.25000000E-01 -3.75000000E-01  1.25000000E-01
                       3.75000000E-01 -2.50000000E-01  0.00000000E+00
                       5.00000000E-01 -2.50000000E-01  1.25000000E-01
                      -3.75000000E-01 -2.50000000E-01  2.50000000E-01
                      -2.50000000E-01 -2.50000000E-01  3.75000000E-01
                      -1.25000000E-01 -2.50000000E-01  5.00000000E-01
                       0.00000000E+00 -1.25000000E-01  0.00000000E+00
                       1.25000000E-01 -1.25000000E-01  1.25000000E-01
                       2.50000000E-01 -1.25000000E-01  2.50000000E-01
                       3.75000000E-01 -1.25000000E-01  3.75000000E-01
                       5.00000000E-01 -1.25000000E-01  5.00000000E-01
                      -3.75000000E-01 -1.25000000E-01 -3.75000000E-01
                      -2.50000000E-01 -1.25000000E-01 -2.50000000E-01
                      -1.25000000E-01 -1.25000000E-01 -1.25000000E-01
                      -1.25000000E-01  5.00000000E-01  0.00000000E+00
                       5.00000000E-01 -3.75000000E-01  0.00000000E+00
                      -3.75000000E-01 -3.75000000E-01  1.25000000E-01
                      -2.50000000E-01 -3.75000000E-01  2.50000000E-01
                      -1.25000000E-01 -3.75000000E-01  3.75000000E-01
                       1.25000000E-01 -2.50000000E-01  0.00000000E+00
                       2.50000000E-01 -2.50000000E-01  1.25000000E-01
                       3.75000000E-01 -2.50000000E-01  2.50000000E-01
                       5.00000000E-01 -2.50000000E-01  3.75000000E-01
                      -3.75000000E-01 -2.50000000E-01  5.00000000E-01
                      -2.50000000E-01 -2.50000000E-01 -3.75000000E-01
                      -1.25000000E-01 -2.50000000E-01 -2.50000000E-01
                       0.00000000E+00 -1.25000000E-01  2.50000000E-01
                       1.25000000E-01 -1.25000000E-01  3.75000000E-01
                       2.50000000E-01 -1.25000000E-01  5.00000000E-01
                       3.75000000E-01 -1.25000000E-01 -3.75000000E-01
                       5.00000000E-01 -1.25000000E-01 -2.50000000E-01
                      -3.75000000E-01 -1.25000000E-01 -1.25000000E-01
                      -3.75000000E-01  5.00000000E-01  0.00000000E+00
              kpt4    -2.50000000E-01 -1.25000000E-01  0.00000000E+00
                      -1.25000000E-01 -1.25000000E-01  1.25000000E-01
                      -1.25000000E-01 -2.50000000E-01  0.00000000E+00
                       5.00000000E-01 -1.25000000E-01  0.00000000E+00
                      -3.75000000E-01 -1.25000000E-01  1.25000000E-01
                      -2.50000000E-01 -1.25000000E-01  2.50000000E-01
                      -1.25000000E-01 -1.25000000E-01  3.75000000E-01
                      -3.75000000E-01 -2.50000000E-01  0.00000000E+00
                      -2.50000000E-01 -2.50000000E-01  1.25000000E-01
                      -1.25000000E-01 -2.50000000E-01  2.50000000E-01
                       2.50000000E-01 -1.25000000E-01  0.00000000E+00
                       3.75000000E-01 -1.25000000E-01  1.25000000E-01
                       5.00000000E-01 -1.25000000E-01  2.50000000E-01
                      -3.75000000E-01 -1.25000000E-01  3.75000000E-01
                      -2.50000000E-01 -1.25000000E-01  5.00000000E-01
                      -1.25000000E-01 -1.25000000E-01 -3.75000000E-01
                      -2.50000000E-01 -3.75000000E-01  0.00000000E+00
                      -1.25000000E-01 -3.75000000E-01  1.25000000E-01
                       3.75000000E-01 -2.50000000E-01  0.00000000E+00
                       5.00000000E-01 -2.50000000E-01  1.25000000E-01
                      -3.75000000E-01 -2.50000000E-01  2.50000000E-01
                      -2.50000000E-01 -2.50000000E-01  3.75000000E-01
                      -1.25000000E-01 -2.50000000E-01  5.00000000E-01
                       0.00000000E+00 -1.25000000E-01  0.00000000E+00
                       1.25000000E-01 -1.25000000E-01  1.25000000E-01
                       2.50000000E-01 -1.25000000E-01  2.50000000E-01
                       3.75000000E-01 -1.25000000E-01  3.75000000E-01
                       5.00000000E-01 -1.25000000E-01  5.00000000E-01
                      -3.75000000E-01 -1.25000000E-01 -3.75000000E-01
                      -2.50000000E-01 -1.25000000E-01 -2.50000000E-01
                      -1.25000000E-01 -1.25000000E-01 -1.25000000E-01
                      -1.25000000E-01  5.00000000E-01  0.00000000E+00
                       5.00000000E-01 -3.75000000E-01  0.00000000E+00
                      -3.75000000E-01 -3.75000000E-01  1.25000000E-01
                      -2.50000000E-01 -3.75000000E-01  2.50000000E-01
                      -1.25000000E-01 -3.75000000E-01  3.75000000E-01
                       1.25000000E-01 -2.50000000E-01  0.00000000E+00
                       2.50000000E-01 -2.50000000E-01  1.25000000E-01
                       3.75000000E-01 -2.50000000E-01  2.50000000E-01
                       5.00000000E-01 -2.50000000E-01  3.75000000E-01
                      -3.75000000E-01 -2.50000000E-01  5.00000000E-01
                      -2.50000000E-01 -2.50000000E-01 -3.75000000E-01
                      -1.25000000E-01 -2.50000000E-01 -2.50000000E-01
                       0.00000000E+00 -1.25000000E-01  2.50000000E-01
                       1.25000000E-01 -1.25000000E-01  3.75000000E-01
                       2.50000000E-01 -1.25000000E-01  5.00000000E-01
                       3.75000000E-01 -1.25000000E-01 -3.75000000E-01
                       5.00000000E-01 -1.25000000E-01 -2.50000000E-01
                      -3.75000000E-01 -1.25000000E-01 -1.25000000E-01
                      -3.75000000E-01  5.00000000E-01  0.00000000E+00
              kpt5    -2.50000000E-01 -1.25000000E-01  0.00000000E+00
                      -1.25000000E-01 -1.25000000E-01  1.25000000E-01
                      -1.25000000E-01 -2.50000000E-01  0.00000000E+00
                       5.00000000E-01 -1.25000000E-01  0.00000000E+00
                      -3.75000000E-01 -1.25000000E-01  1.25000000E-01
                      -2.50000000E-01 -1.25000000E-01  2.50000000E-01
                      -1.25000000E-01 -1.25000000E-01  3.75000000E-01
                      -3.75000000E-01 -2.50000000E-01  0.00000000E+00
                      -2.50000000E-01 -2.50000000E-01  1.25000000E-01
                      -1.25000000E-01 -2.50000000E-01  2.50000000E-01
                       2.50000000E-01 -1.25000000E-01  0.00000000E+00
                       3.75000000E-01 -1.25000000E-01  1.25000000E-01
                       5.00000000E-01 -1.25000000E-01  2.50000000E-01
                      -3.75000000E-01 -1.25000000E-01  3.75000000E-01
                      -2.50000000E-01 -1.25000000E-01  5.00000000E-01
                      -1.25000000E-01 -1.25000000E-01 -3.75000000E-01
                      -2.50000000E-01 -3.75000000E-01  0.00000000E+00
                      -1.25000000E-01 -3.75000000E-01  1.25000000E-01
                       3.75000000E-01 -2.50000000E-01  0.00000000E+00
                       5.00000000E-01 -2.50000000E-01  1.25000000E-01
                      -3.75000000E-01 -2.50000000E-01  2.50000000E-01
                      -2.50000000E-01 -2.50000000E-01  3.75000000E-01
                      -1.25000000E-01 -2.50000000E-01  5.00000000E-01
                       0.00000000E+00 -1.25000000E-01  0.00000000E+00
                       1.25000000E-01 -1.25000000E-01  1.25000000E-01
                       2.50000000E-01 -1.25000000E-01  2.50000000E-01
                       3.75000000E-01 -1.25000000E-01  3.75000000E-01
                       5.00000000E-01 -1.25000000E-01  5.00000000E-01
                      -3.75000000E-01 -1.25000000E-01 -3.75000000E-01
                      -2.50000000E-01 -1.25000000E-01 -2.50000000E-01
                      -1.25000000E-01 -1.25000000E-01 -1.25000000E-01
                      -1.25000000E-01  5.00000000E-01  0.00000000E+00
                       5.00000000E-01 -3.75000000E-01  0.00000000E+00
                      -3.75000000E-01 -3.75000000E-01  1.25000000E-01
                      -2.50000000E-01 -3.75000000E-01  2.50000000E-01
                      -1.25000000E-01 -3.75000000E-01  3.75000000E-01
                       1.25000000E-01 -2.50000000E-01  0.00000000E+00
                       2.50000000E-01 -2.50000000E-01  1.25000000E-01
                       3.75000000E-01 -2.50000000E-01  2.50000000E-01
                       5.00000000E-01 -2.50000000E-01  3.75000000E-01
                      -3.75000000E-01 -2.50000000E-01  5.00000000E-01
                      -2.50000000E-01 -2.50000000E-01 -3.75000000E-01
                      -1.25000000E-01 -2.50000000E-01 -2.50000000E-01
                       0.00000000E+00 -1.25000000E-01  2.50000000E-01
                       1.25000000E-01 -1.25000000E-01  3.75000000E-01
                       2.50000000E-01 -1.25000000E-01  5.00000000E-01
                       3.75000000E-01 -1.25000000E-01 -3.75000000E-01
                       5.00000000E-01 -1.25000000E-01 -2.50000000E-01
                      -3.75000000E-01 -1.25000000E-01 -1.25000000E-01
                      -3.75000000E-01  5.00000000E-01  0.00000000E+00
              kpt6    -2.50000000E-01 -1.25000000E-01  0.00000000E+00
                      -1.25000000E-01 -1.25000000E-01  1.25000000E-01
                      -1.25000000E-01 -2.50000000E-01  0.00000000E+00
                       5.00000000E-01 -1.25000000E-01  0.00000000E+00
                      -3.75000000E-01 -1.25000000E-01  1.25000000E-01
                      -2.50000000E-01 -1.25000000E-01  2.50000000E-01
                      -1.25000000E-01 -1.25000000E-01  3.75000000E-01
                      -3.75000000E-01 -2.50000000E-01  0.00000000E+00
                      -2.50000000E-01 -2.50000000E-01  1.25000000E-01
                      -1.25000000E-01 -2.50000000E-01  2.50000000E-01
                       2.50000000E-01 -1.25000000E-01  0.00000000E+00
                       3.75000000E-01 -1.25000000E-01  1.25000000E-01
                       5.00000000E-01 -1.25000000E-01  2.50000000E-01
                      -3.75000000E-01 -1.25000000E-01  3.75000000E-01
                      -2.50000000E-01 -1.25000000E-01  5.00000000E-01
                      -1.25000000E-01 -1.25000000E-01 -3.75000000E-01
                      -2.50000000E-01 -3.75000000E-01  0.00000000E+00
                      -1.25000000E-01 -3.75000000E-01  1.25000000E-01
                       3.75000000E-01 -2.50000000E-01  0.00000000E+00
                       5.00000000E-01 -2.50000000E-01  1.25000000E-01
                      -3.75000000E-01 -2.50000000E-01  2.50000000E-01
                      -2.50000000E-01 -2.50000000E-01  3.75000000E-01
                      -1.25000000E-01 -2.50000000E-01  5.00000000E-01
                       0.00000000E+00 -1.25000000E-01  0.00000000E+00
                       1.25000000E-01 -1.25000000E-01  1.25000000E-01
                       2.50000000E-01 -1.25000000E-01  2.50000000E-01
                       3.75000000E-01 -1.25000000E-01  3.75000000E-01
                       5.00000000E-01 -1.25000000E-01  5.00000000E-01
                      -3.75000000E-01 -1.25000000E-01 -3.75000000E-01
                      -2.50000000E-01 -1.25000000E-01 -2.50000000E-01
                      -1.25000000E-01 -1.25000000E-01 -1.25000000E-01
                      -1.25000000E-01  5.00000000E-01  0.00000000E+00
                       5.00000000E-01 -3.75000000E-01  0.00000000E+00
                      -3.75000000E-01 -3.75000000E-01  1.25000000E-01
                      -2.50000000E-01 -3.75000000E-01  2.50000000E-01
                      -1.25000000E-01 -3.75000000E-01  3.75000000E-01
                       1.25000000E-01 -2.50000000E-01  0.00000000E+00
                       2.50000000E-01 -2.50000000E-01  1.25000000E-01
                       3.75000000E-01 -2.50000000E-01  2.50000000E-01
                       5.00000000E-01 -2.50000000E-01  3.75000000E-01
                      -3.75000000E-01 -2.50000000E-01  5.00000000E-01
                      -2.50000000E-01 -2.50000000E-01 -3.75000000E-01
                      -1.25000000E-01 -2.50000000E-01 -2.50000000E-01
                       0.00000000E+00 -1.25000000E-01  2.50000000E-01
                       1.25000000E-01 -1.25000000E-01  3.75000000E-01
                       2.50000000E-01 -1.25000000E-01  5.00000000E-01
                       3.75000000E-01 -1.25000000E-01 -3.75000000E-01
                       5.00000000E-01 -1.25000000E-01 -2.50000000E-01
                      -3.75000000E-01 -1.25000000E-01 -1.25000000E-01
                      -3.75000000E-01  5.00000000E-01  0.00000000E+00
                       outvar_i_n : Printing only first  50 k-points.
           kptopt1          1
           kptopt2          1
           kptopt3          3
           kptopt4          3
           kptopt5          3
           kptopt6          3
         kptrlatt        8    0    0      0    8    0     -4  -12    4
          kptrlen      3.41108311E+01
P           mkmem1        128
P           mkmem2        128
P           mkmem3        256
P           mkmem4        256
P           mkmem5        256
P           mkmem6        256
P          mkqmem1        128
P          mkqmem2        128
P          mkqmem3        256
P          mkqmem4        256
P          mkqmem5        256
P          mkqmem6        256
P          mk1mem1        128
P          mk1mem2        128
P          mk1mem3        256
P          mk1mem4        256
P          mk1mem5        256
P          mk1mem6        256
            natom           3
            nband1         20
            nband2         40
            nband3         40
            nband4         40
            nband5         40
            nband6         40
           nbdbuf1          0
           nbdbuf2          2
           nbdbuf3          2
           nbdbuf4          2
           nbdbuf5          2
           nbdbuf6          2
           ndtset           6
            ngfft          18      18      96
             nkpt1        128
             nkpt2        128
             nkpt3        256
             nkpt4        256
             nkpt5        256
             nkpt6        256
            nline1          4
            nline2          4
            nline3          4
            nline4          0
            nline5          0
            nline6          0
             nqpt1          0
             nqpt2          0
             nqpt3          0
             nqpt4          1
             nqpt5          1
             nqpt6          1
            nstep1         25
            nstep2         25
            nstep3         25
            nstep4          1
            nstep5          1
            nstep6          1
             nsym           1
           ntypat           2
              occ1     2.000000  2.000000  2.000000  2.000000  2.000000  2.000000
                       2.000000  2.000000  2.000000  2.000000  2.000000  2.000000
                       2.000000  0.000000  0.000000  0.000000  0.000000  0.000000
                       0.000000  0.000000
              occ4     2.000000  2.000000  2.000000  2.000000  2.000000  2.000000
                       2.000000  2.000000  2.000000  2.000000  2.000000  2.000000
                       2.000000  0.000000  0.000000  0.000000  0.000000  0.000000
                       0.000000  0.000000  0.000000  0.000000  0.000000  0.000000
                       0.000000  0.000000  0.000000  0.000000  0.000000  0.000000
                       0.000000  0.000000  0.000000  0.000000  0.000000  0.000000
                       0.000000  0.000000  0.000000  0.000000
              occ5     2.000000  2.000000  2.000000  2.000000  2.000000  2.000000
                       2.000000  2.000000  2.000000  2.000000  2.000000  2.000000
                       2.000000  0.000000  0.000000  0.000000  0.000000  0.000000
                       0.000000  0.000000  0.000000  0.000000  0.000000  0.000000
                       0.000000  0.000000  0.000000  0.000000  0.000000  0.000000
                       0.000000  0.000000  0.000000  0.000000  0.000000  0.000000
                       0.000000  0.000000  0.000000  0.000000
              occ6     2.000000  2.000000  2.000000  2.000000  2.000000  2.000000
                       2.000000  2.000000  2.000000  2.000000  2.000000  2.000000
                       2.000000  0.000000  0.000000  0.000000  0.000000  0.000000
                       0.000000  0.000000  0.000000  0.000000  0.000000  0.000000
                       0.000000  0.000000  0.000000  0.000000  0.000000  0.000000
                       0.000000  0.000000  0.000000  0.000000  0.000000  0.000000
                       0.000000  0.000000  0.000000  0.000000
        optdriver1          0
        optdriver2          0
        optdriver3          0
        optdriver4          1
        optdriver5          1
        optdriver6          1
            prtwf1          1
            prtwf2          1
            prtwf3          1
            prtwf4          3
            prtwf5          3
            prtwf6          3
            rfdir1          0       0       0
            rfdir2          0       0       0
            rfdir3          0       0       0
            rfdir4          1       0       0
            rfdir5          0       1       0
            rfdir6          0       0       1
           rfelfd1          0
           rfelfd2          0
           rfelfd3          0
           rfelfd4          2
           rfelfd5          2
           rfelfd6          2
            rprim      0.0000000000E+00  5.0000000000E-01  5.0000000000E-01
                       5.0000000000E-01  0.0000000000E+00  5.0000000000E-01
                       5.0000000000E-01  5.0000000000E-01  0.0000000000E+00
           shiftk      0.00000000E+00  0.00000000E+00  5.00000000E-01
          spgroup           1
           tolwfr      1.00000000E-20
            typat      1  2  2
              wtk1       0.00781    0.00781    0.00781    0.00781    0.00781    0.00781
                         0.00781    0.00781    0.00781    0.00781    0.00781    0.00781
                         0.00781    0.00781    0.00781    0.00781    0.00781    0.00781
                         0.00781    0.00781    0.00781    0.00781    0.00781    0.00781
                         0.00781    0.00781    0.00781    0.00781    0.00781    0.00781
                         0.00781    0.00781    0.00781    0.00781    0.00781    0.00781
                         0.00781    0.00781    0.00781    0.00781    0.00781    0.00781
                         0.00781    0.00781    0.00781    0.00781    0.00781    0.00781
                         0.00781    0.00781
              wtk2       0.00781    0.00781    0.00781    0.00781    0.00781    0.00781
                         0.00781    0.00781    0.00781    0.00781    0.00781    0.00781
                         0.00781    0.00781    0.00781    0.00781    0.00781    0.00781
                         0.00781    0.00781    0.00781    0.00781    0.00781    0.00781
                         0.00781    0.00781    0.00781    0.00781    0.00781    0.00781
                         0.00781    0.00781    0.00781    0.00781    0.00781    0.00781
                         0.00781    0.00781    0.00781    0.00781    0.00781    0.00781
                         0.00781    0.00781    0.00781    0.00781    0.00781    0.00781
                         0.00781    0.00781
              wtk3       0.00391    0.00391    0.00391    0.00391    0.00391    0.00391
                         0.00391    0.00391    0.00391    0.00391    0.00391    0.00391
                         0.00391    0.00391    0.00391    0.00391    0.00391    0.00391
                         0.00391    0.00391    0.00391    0.00391    0.00391    0.00391
                         0.00391    0.00391    0.00391    0.00391    0.00391    0.00391
                         0.00391    0.00391    0.00391    0.00391    0.00391    0.00391
                         0.00391    0.00391    0.00391    0.00391    0.00391    0.00391
                         0.00391    0.00391    0.00391    0.00391    0.00391    0.00391
                         0.00391    0.00391
              wtk4       0.00391    0.00391    0.00391    0.00391    0.00391    0.00391
                         0.00391    0.00391    0.00391    0.00391    0.00391    0.00391
                         0.00391    0.00391    0.00391    0.00391    0.00391    0.00391
                         0.00391    0.00391    0.00391    0.00391    0.00391    0.00391
                         0.00391    0.00391    0.00391    0.00391    0.00391    0.00391
                         0.00391    0.00391    0.00391    0.00391    0.00391    0.00391
                         0.00391    0.00391    0.00391    0.00391    0.00391    0.00391
                         0.00391    0.00391    0.00391    0.00391    0.00391    0.00391
                         0.00391    0.00391
              wtk5       0.00391    0.00391    0.00391    0.00391    0.00391    0.00391
                         0.00391    0.00391    0.00391    0.00391    0.00391    0.00391
                         0.00391    0.00391    0.00391    0.00391    0.00391    0.00391
                         0.00391    0.00391    0.00391    0.00391    0.00391    0.00391
                         0.00391    0.00391    0.00391    0.00391    0.00391    0.00391
                         0.00391    0.00391    0.00391    0.00391    0.00391    0.00391
                         0.00391    0.00391    0.00391    0.00391    0.00391    0.00391
                         0.00391    0.00391    0.00391    0.00391    0.00391    0.00391
                         0.00391    0.00391
              wtk6       0.00391    0.00391    0.00391    0.00391    0.00391    0.00391
                         0.00391    0.00391    0.00391    0.00391    0.00391    0.00391
                         0.00391    0.00391    0.00391    0.00391    0.00391    0.00391
                         0.00391    0.00391    0.00391    0.00391    0.00391    0.00391
                         0.00391    0.00391    0.00391    0.00391    0.00391    0.00391
                         0.00391    0.00391    0.00391    0.00391    0.00391    0.00391
                         0.00391    0.00391    0.00391    0.00391    0.00391    0.00391
                         0.00391    0.00391    0.00391    0.00391    0.00391    0.00391
                         0.00391    0.00391
                       outvars : Printing only first  50 k-points.
           xangst      0.0000000000E+00  0.0000000000E+00  0.0000000000E+00
                      -3.2307856116E-01 -3.2307856116E-01  1.0636461893E+00
                       1.3867247504E+00  1.3867247504E+00  1.0636461893E+00
            xcart      0.0000000000E+00  0.0000000000E+00  0.0000000000E+00
                      -6.1053000000E-01 -6.1053000000E-01  2.0100000000E+00
                       2.6205300000E+00  2.6205300000E+00  2.0100000000E+00
             xred      0.0000000000E+00  0.0000000000E+00  0.0000000000E+00
                       3.3333333333E-01  3.3333333333E-01 -9.8000000000E-02
                       3.3333333333E-01  3.3333333333E-01  9.8000000000E-02
            znucl       42.00000   16.00000

================================================================================

 chkinp: Checking input parameters for consistency, jdtset=   1.

 chkinp: Checking input parameters for consistency, jdtset=   2.

 chkinp: Checking input parameters for consistency, jdtset=   3.

 chkinp: Checking input parameters for consistency, jdtset=   4.

 chkinp: Checking input parameters for consistency, jdtset=   5.

 chkinp: Checking input parameters for consistency, jdtset=   6.

================================================================================
== DATASET  1 ==================================================================
-   mpi_nproc: 1, omp_nthreads: -1 (-1 if OMP is not activated)


--- !DatasetInfo
iteration_state: {dtset: 1, }
dimensions: {natom: 3, nkpt: 128, mband: 20, nsppol: 1, nspinor: 1, nspden: 1, mpw: 1314, }
cutoff_energies: {ecut:  20.0, pawecutdg:  -1.0, }
electrons: {nelect:   2.60000000E+01, charge:   0.00000000E+00, occopt:   1.00000000E+00, tsmear:   1.00000000E-02, }
meta: {optdriver: 0, ionmov: 0, optcell: 0, iscf: 7, paral_kgb: 0, }
...

 Exchange-correlation functional for the present dataset will be:
  GGA: Perdew-Burke-Ernzerhof functional - ixc=11
 Citation for XC functional:
  J.P.Perdew, K.Burke, M.Ernzerhof, PRL 77, 3865 (1996)

 Real(R)+Recip(G) space primitive vectors, cartesian coordinates (Bohr,Bohr^-1):
 R(1)=  0.0000000  3.0150000  3.0150000  G(1)= -0.1658375  0.1658375  0.1658375
 R(2)=  3.0150000  0.0000000  3.0150000  G(2)=  0.1658375 -0.1658375  0.1658375
 R(3)= 16.4850000 16.4850000  0.0000000  G(3)=  0.0303306  0.0303306 -0.0303306
 Unit cell volume ucvol=  2.9970472E+02 bohr^3
 Angles (23,13,12)=  6.00000000E+01  6.00000000E+01  6.00000000E+01 degrees

 getcut: wavevector=  0.0000  0.0000  0.0000  ngfft=  18  18  96
         ecut(hartree)=     20.000   => boxcut(ratio)=   2.04946

--- Pseudopotential description ------------------------------------------------
- pspini: atom type   1  psp file is Mo.psp8
- pspatm: opening atomic psp file    Mo.psp8
- Mo    ONCVPSP-3.2.3.1  r_core=   1.45541   1.45541   1.35488
- 42.00000  14.00000    170510                znucl, zion, pspdat
    8   11    2    4       600   0.00000      pspcod,pspxc,lmax,lloc,mmax,r2well
    5.99000000000000    3.00000000000000    0.00000000000000   rchrg,fchrg,qchrg
     nproj     2     2     2
     extension_switch     1
  pspatm : epsatm=   15.95693586
         --- l  ekb(1:nproj) -->
             0   13.833287    1.350687
             1    8.015347    1.134034
             2    2.765699    0.969071
 pspatm: atomic psp has been read  and splines computed

- pspini: atom type   2  psp file is S.psp8
- pspatm: opening atomic psp file    S.psp8
- S     ONCVPSP-3.2.3.1  r_core=   1.45376   1.45376   1.61851
- 16.00000   6.00000    170504                znucl, zion, pspdat
    8   11    2    4       600   0.00000      pspcod,pspxc,lmax,lloc,mmax,r2well
    5.99000000000000    6.00000000000000    0.00000000000000   rchrg,fchrg,qchrg
     nproj     2     2     2
     extension_switch     1
  pspatm : epsatm=    9.01821879
         --- l  ekb(1:nproj) -->
             0    6.763951    0.574108
             1    3.227080    0.887329
             2   -3.547662   -0.986524
 pspatm: atomic psp has been read  and splines computed

   8.83827710E+02                                ecore*ucvol(ha*bohr**3)
--------------------------------------------------------------------------------

_setup2: Arith. and geom. avg. npw (full set) are    1280.711    1280.691

================================================================================

--- !BeginCycle
iteration_state: {dtset: 1, }
solver: {iscf: 7, nstep: 25, nline: 4, wfoptalg: 0, }
tolerances: {tolwfr: 1.00E-20, }
...

     iter   Etot(hartree)      deltaE(h)  residm     vres2
 ETOT  1  -87.405345621644    -8.741E+01 1.412E-01 9.861E+03
 ETOT  2  -87.592173324512    -1.868E-01 3.992E-02 4.936E+03
 ETOT  3  -88.244549761051    -6.524E-01 2.246E-02 5.080E+02
 ETOT  4  -88.266216322458    -2.167E-02 5.784E-03 2.760E+02
 ETOT  5  -88.276944651025    -1.073E-02 3.579E-03 5.332E+01
 ETOT  6  -88.277993630803    -1.049E-03 3.960E-03 1.996E+01
 ETOT  7  -88.278447611153    -4.540E-04 4.041E-03 3.717E+00
 ETOT  8  -88.278480935395    -3.332E-05 2.597E-03 9.667E-01
 ETOT  9  -88.278491002785    -1.007E-05 1.696E-03 4.262E-02
 ETOT 10  -88.278491808809    -8.060E-07 1.348E-03 5.684E-03
 ETOT 11  -88.278492011618    -2.028E-07 5.812E-04 7.930E-04
 ETOT 12  -88.278492020296    -8.678E-09 3.968E-04 4.214E-04
 ETOT 13  -88.278492041631    -2.134E-08 1.509E-04 3.596E-05
 ETOT 14  -88.278492043616    -1.985E-09 1.090E-04 4.008E-06
 ETOT 15  -88.278492043724    -1.072E-10 5.568E-05 5.757E-06
 ETOT 16  -88.278492043986    -2.622E-10 3.890E-05 7.285E-07
 ETOT 17  -88.278492044025    -3.979E-11 2.004E-05 4.392E-08
 ETOT 18  -88.278492044026    -1.421E-13 1.377E-05 1.042E-09
 ETOT 19  -88.278492044022     3.624E-12 7.135E-06 4.736E-10
 ETOT 20  -88.278492044029    -6.722E-12 4.864E-06 1.040E-10
 ETOT 21  -88.278492044020     8.967E-12 2.532E-06 3.170E-12
 ETOT 22  -88.278492044021    -1.549E-12 1.718E-06 2.463E-13
 ETOT 23  -88.278492044027    -5.741E-12 8.972E-07 1.323E-14
 ETOT 24  -88.278492044028    -1.378E-12 6.072E-07 3.413E-16
 ETOT 25  -88.278492044024     4.093E-12 3.386E-07 5.635E-18

 Cartesian components of stress tensor (hartree/bohr^3)
  sigma(1 1)= -1.73356142E-02  sigma(3 2)=  9.03775962E-03
  sigma(2 2)= -1.73356142E-02  sigma(3 1)=  9.03775962E-03
  sigma(3 3)= -3.67297169E-02  sigma(2 1)=  4.46474619E-04


 scprqt:  WARNING -
  nstep=   25 was not enough SCF cycles to converge;
  maximum residual=  3.386E-07 exceeds tolwfr=  1.000E-20


--- !ResultsGS
iteration_state: {dtset: 1, }
comment   : Summary of ground state results
lattice_vectors:
- [  0.0000000,   3.0150000,   3.0150000, ]
- [  3.0150000,   0.0000000,   3.0150000, ]
- [ 16.4850000,  16.4850000,   0.0000000, ]
lattice_lengths: [   4.26385,    4.26385,   23.31331, ]
lattice_angles: [ 60.000,  60.000,  60.000, ] # degrees, (23, 13, 12)
lattice_volume:   2.9970472E+02
convergence: {deltae:  4.093E-12, res2:  5.635E-18, residm:  3.386E-07, diffor: null, }
etotal    :  -8.82784920E+01
entropy   :   0.00000000E+00
fermie    :   4.13513056E-01
cartesian_stress_tensor: # hartree/bohr^3
- [ -1.73356142E-02,   4.46474619E-04,   9.03775962E-03, ]
- [  4.46474619E-04,  -1.73356142E-02,   9.03775962E-03, ]
- [  9.03775962E-03,   9.03775962E-03,  -3.67297169E-02, ]
pressure_GPa:   7.0023E+02
xred      :
- [  0.0000E+00,   0.0000E+00,   0.0000E+00, Mo]
- [  3.3333E-01,   3.3333E-01,  -9.8000E-02,  S]
- [  3.3333E-01,   3.3333E-01,   9.8000E-02,  S]
cartesian_forces: # hartree/bohr
- [  6.11459903E-01,   6.11459903E-01,  -3.40254575E+00, ]
- [ -1.55478720E+00,  -1.55478720E+00,   4.29065750E+00, ]
- [  9.43327299E-01,   9.43327299E-01,  -8.88111752E-01, ]
force_length_stats: {min:   1.60264633E+00, max:   4.82125173E+00, mean:   3.31153599E+00, }
...

 Integrated electronic density in atomic spheres:
 ------------------------------------------------
 Atom  Sphere_radius  Integrated_density
    1        2.00000         14.90852425
    2        2.00000          8.41554780
    3        2.00000          7.22354951
================================================================================

 ----iterations are completed or convergence reached----

 Mean square residual over all n,k,spin=   44.353E-11; max=  33.856E-08
 reduced coordinates (array xred) for    3 atoms
       0.000000000000      0.000000000000      0.000000000000
       0.333333333333      0.333333333333     -0.098000000000
       0.333333333333      0.333333333333      0.098000000000
 rms dE/dt=  2.1805E+01; max dE/dt=  5.1261E+01; dE/dt below (all hartree)
    1       8.415123947812      8.415123947813    -20.159831255643
    2      -8.248648821249     -8.248648821254     51.261335776814
    3      -0.166474749237     -0.166474749237    -31.101499323579

 cartesian coordinates (angstrom) at end:
    1      0.00000000000000     0.00000000000000     0.00000000000000
    2     -0.32307856116045    -0.32307856116045     1.06364618926590
    3      1.38672475042635     1.38672475042635     1.06364618926590

 cartesian forces (hartree/bohr) at end:
    1      0.61145990258295     0.61145990258377    -3.40254574737197
    2     -1.55478720182783    -1.55478720182902     4.29065749934949
    3      0.94332729924488     0.94332729924525    -0.88811175197752
 frms,max,avg= 2.0585331E+00 4.2906575E+00  -5.255E-08 -5.255E-08  1.083E-08 h/b

 cartesian forces (eV/Angstrom) at end:
    1     31.44252975013175    31.44252975017425  -174.96592243579641
    2    -79.95036574285255   -79.95036574291417   220.63446106774168
    3     48.50783599272079    48.50783599273992   -45.66853863194527
 frms,max,avg= 1.0585402E+02 2.2063446E+02  -2.702E-06 -2.702E-06  5.570E-07 e/A
 length scales=  6.030000000000  6.030000000000 32.970000000000 bohr
              =  3.190938567798  3.190938567798 17.446972567212 angstroms
 prteigrs : about to open file o_DS1_EIG
 Fermi (or HOMO) energy (hartree) =   0.41351   Average Vxc (hartree)=  -0.32171
 Eigenvalues (hartree) for nkpt= 128  k points:
 kpt#   1, nband= 20, wtk=  0.00781, kpt= -0.2500 -0.1250  0.0000 (reduced coord)
  -2.16805   -1.35018   -1.19149   -1.11532   -0.33914   -0.30406   -0.21685   -0.19530
  -0.09933    0.03574    0.08738    0.32333    0.41341    0.43057    0.49720    0.53182
   0.58522    0.62912    0.65729    0.68576
 prteigrs : prtvol=0 or 1, do not print more k-points.


--- !EnergyTerms
iteration_state     : {dtset: 1, }
comment             : Components of total free energy in Hartree
kinetic             :  4.15433033003411E+01
hartree             :  2.18989775354276E+02
xc                  : -1.92946588722595E+01
Ewald energy        :  1.39029121084284E+02
psp_core            :  2.94899498028684E+00
local_psp           : -4.83879534817974E+02
non_local_psp       :  1.23845069270217E+01
total_energy        : -8.82784920440243E+01
total_energy_eV     : -2.40217993359190E+03
band_energy         : -1.21722714410611E+01
...


 Cartesian components of stress tensor (hartree/bohr^3)
  sigma(1 1)= -1.73356142E-02  sigma(3 2)=  9.03775962E-03
  sigma(2 2)= -1.73356142E-02  sigma(3 1)=  9.03775962E-03
  sigma(3 3)= -3.67297169E-02  sigma(2 1)=  4.46474619E-04

-Cartesian components of stress tensor (GPa)         [Pressure=  7.0023E+02 GPa]
- sigma(1 1)= -5.10031293E+02  sigma(3 2)=  2.65900023E+02
- sigma(2 2)= -5.10031293E+02  sigma(3 1)=  2.65900023E+02
- sigma(3 3)= -1.08062540E+03  sigma(2 1)=  1.31357346E+01

================================================================================
== DATASET  2 ==================================================================
-   mpi_nproc: 1, omp_nthreads: -1 (-1 if OMP is not activated)


--- !DatasetInfo
iteration_state: {dtset: 2, }
dimensions: {natom: 3, nkpt: 128, mband: 40, nsppol: 1, nspinor: 1, nspden: 1, mpw: 1314, }
cutoff_energies: {ecut:  20.0, pawecutdg:  -1.0, }
electrons: {nelect:   2.60000000E+01, charge:   0.00000000E+00, occopt:   1.00000000E+00, tsmear:   1.00000000E-02, }
meta: {optdriver: 0, ionmov: 0, optcell: 0, iscf: -2, paral_kgb: 0, }
...

 mkfilename : getwfk/=0, take file _WFK from output of DATASET   1.

 mkfilename : getden/=0, take file _DEN from output of DATASET   1.

 Exchange-correlation functional for the present dataset will be:
  GGA: Perdew-Burke-Ernzerhof functional - ixc=11
 Citation for XC functional:
  J.P.Perdew, K.Burke, M.Ernzerhof, PRL 77, 3865 (1996)

 Real(R)+Recip(G) space primitive vectors, cartesian coordinates (Bohr,Bohr^-1):
 R(1)=  0.0000000  3.0150000  3.0150000  G(1)= -0.1658375  0.1658375  0.1658375
 R(2)=  3.0150000  0.0000000  3.0150000  G(2)=  0.1658375 -0.1658375  0.1658375
 R(3)= 16.4850000 16.4850000  0.0000000  G(3)=  0.0303306  0.0303306 -0.0303306
 Unit cell volume ucvol=  2.9970472E+02 bohr^3
 Angles (23,13,12)=  6.00000000E+01  6.00000000E+01  6.00000000E+01 degrees

 getcut: wavevector=  0.0000  0.0000  0.0000  ngfft=  18  18  96
         ecut(hartree)=     20.000   => boxcut(ratio)=   2.04946
--------------------------------------------------------------------------------

-inwffil : will read wavefunctions from disk file o_DS1_WFK

================================================================================
 prteigrs : about to open file o_DS2_EIG
 Non-SCF case, kpt    1 ( -0.25000 -0.12500  0.00000), residuals and eigenvalues=
  8.19E-23  1.24E-22  1.32E-21  1.21E-21  1.20E-21  1.30E-22  2.04E-21  1.40E-21
  1.66E-21  1.89E-21  2.01E-21  4.85E-21  3.27E-21  2.09E-21  4.83E-21  1.53E-21
  8.87E-21  7.37E-21  2.20E-21  6.14E-21  6.16E-21  7.85E-21  4.24E-21  4.14E-21
  6.98E-21  5.99E-21  9.06E-21  3.40E-21  5.53E-21  9.21E-21  7.15E-21  7.52E-21
  5.74E-21  4.58E-21  8.14E-21  8.48E-21  8.50E-21  4.32E-21  4.78E-21  8.35E-12
 -2.1680E+00 -1.3502E+00 -1.1915E+00 -1.1153E+00 -3.3914E-01 -3.0406E-01
 -2.1685E-01 -1.9530E-01 -9.9331E-02  3.5744E-02  8.7376E-02  3.2333E-01
  4.1341E-01  4.3057E-01  4.9720E-01  5.3182E-01  5.8522E-01  6.2912E-01
  6.5729E-01  6.8576E-01  7.5549E-01  8.3107E-01  8.6957E-01  9.4020E-01
  9.6702E-01  1.0558E+00  1.1023E+00  1.1734E+00  1.2401E+00  1.2819E+00
  1.3265E+00  1.3930E+00  1.4138E+00  1.4570E+00  1.4758E+00  1.4980E+00
  1.5252E+00  1.5322E+00  1.5428E+00  1.6097E+00
  prteigrs : nnsclo,ikpt=   25    1 max resid (incl. the buffer)=  8.34718E-12
 prteigrs : prtvol=0 or 1, do not print more k-points.

  prteigrs : nnsclo,ikpt=   25    2 max resid (incl. the buffer)=  1.89620E-07
  prteigrs : nnsclo,ikpt=   25    3 max resid (incl. the buffer)=  6.64448E-10
  prteigrs : nnsclo,ikpt=   25    4 max resid (incl. the buffer)=  8.04859E-10
  prteigrs : nnsclo,ikpt=   25    5 max resid (incl. the buffer)=  1.66745E-08
  prteigrs : nnsclo,ikpt=   25    6 max resid (incl. the buffer)=  4.91938E-14
  prteigrs : nnsclo,ikpt=   25    7 max resid (incl. the buffer)=  6.82423E-05
  prteigrs : nnsclo,ikpt=   25    8 max resid (incl. the buffer)=  3.61472E-07
  prteigrs : nnsclo,ikpt=   25    9 max resid (incl. the buffer)=  3.59857E-14
  prteigrs : nnsclo,ikpt=   25   10 max resid (incl. the buffer)=  1.84008E-14
  prteigrs : nnsclo,ikpt=   25   11 max resid (incl. the buffer)=  2.88541E-07
  prteigrs : nnsclo,ikpt=   25   12 max resid (incl. the buffer)=  2.74930E-11
  prteigrs : nnsclo,ikpt=   25   13 max resid (incl. the buffer)=  4.04952E-10
  prteigrs : nnsclo,ikpt=   25   14 max resid (incl. the buffer)=  5.74965E-08
  prteigrs : nnsclo,ikpt=   25   15 max resid (incl. the buffer)=  8.50018E-07
  prteigrs : nnsclo,ikpt=   25   16 max resid (incl. the buffer)=  1.45259E-06
  prteigrs : nnsclo,ikpt=   25   17 max resid (incl. the buffer)=  3.00558E-07
  prteigrs : nnsclo,ikpt=   25   18 max resid (incl. the buffer)=  3.96596E-08
  prteigrs : nnsclo,ikpt=   25   19 max resid (incl. the buffer)=  3.90288E-10
  prteigrs : nnsclo,ikpt=   25   20 max resid (incl. the buffer)=  2.25287E-12
  prteigrs : nnsclo,ikpt=   25   21 max resid (incl. the buffer)=  2.78905E-10
  prteigrs : nnsclo,ikpt=   25   22 max resid (incl. the buffer)=  1.26835E-10
  prteigrs : nnsclo,ikpt=   25   23 max resid (incl. the buffer)=  8.62294E-07
  prteigrs : nnsclo,ikpt=   25   24 max resid (incl. the buffer)=  3.66793E-10
  prteigrs : nnsclo,ikpt=   25   25 max resid (incl. the buffer)=  5.06158E-12
  prteigrs : nnsclo,ikpt=   25   26 max resid (incl. the buffer)=  1.13365E-05
  prteigrs : nnsclo,ikpt=   25   27 max resid (incl. the buffer)=  3.89041E-10
  prteigrs : nnsclo,ikpt=   25   28 max resid (incl. the buffer)=  1.63355E-10
  prteigrs : nnsclo,ikpt=   25   29 max resid (incl. the buffer)=  9.85415E-09
  prteigrs : nnsclo,ikpt=   25   30 max resid (incl. the buffer)=  6.71623E-08
  prteigrs : nnsclo,ikpt=   25   31 max resid (incl. the buffer)=  3.67100E-07
  prteigrs : nnsclo,ikpt=   25   32 max resid (incl. the buffer)=  1.26377E-09
  prteigrs : nnsclo,ikpt=   25   33 max resid (incl. the buffer)=  2.07070E-13
  prteigrs : nnsclo,ikpt=   25   34 max resid (incl. the buffer)=  2.93005E-10
  prteigrs : nnsclo,ikpt=   25   35 max resid (incl. the buffer)=  2.08704E-10
  prteigrs : nnsclo,ikpt=   25   36 max resid (incl. the buffer)=  1.63341E-08
  prteigrs : nnsclo,ikpt=   25   37 max resid (incl. the buffer)=  1.77743E-07
  prteigrs : nnsclo,ikpt=   25   38 max resid (incl. the buffer)=  5.32187E-08
  prteigrs : nnsclo,ikpt=   25   39 max resid (incl. the buffer)=  3.48922E-08
  prteigrs : nnsclo,ikpt=   25   40 max resid (incl. the buffer)=  6.42411E-12
  prteigrs : nnsclo,ikpt=   25   41 max resid (incl. the buffer)=  9.39097E-16
  prteigrs : nnsclo,ikpt=   25   42 max resid (incl. the buffer)=  9.56708E-08
  prteigrs : nnsclo,ikpt=   25   43 max resid (incl. the buffer)=  8.36218E-09
  prteigrs : nnsclo,ikpt=   25   44 max resid (incl. the buffer)=  2.01094E-08
  prteigrs : nnsclo,ikpt=   25   45 max resid (incl. the buffer)=  9.59334E-08
  prteigrs : nnsclo,ikpt=   25   46 max resid (incl. the buffer)=  2.07276E-09
  prteigrs : nnsclo,ikpt=   25   47 max resid (incl. the buffer)=  4.58863E-09
  prteigrs : nnsclo,ikpt=   25   48 max resid (incl. the buffer)=  5.64997E-06
  prteigrs : nnsclo,ikpt=   25   49 max resid (incl. the buffer)=  2.17402E-11
  prteigrs : nnsclo,ikpt=   25   50 max resid (incl. the buffer)=  3.04277E-13
  prteigrs : nnsclo,ikpt=   25   51 max resid (incl. the buffer)=  5.37740E-12
  prteigrs : nnsclo,ikpt=   25   52 max resid (incl. the buffer)=  2.08593E-10
  prteigrs : nnsclo,ikpt=   25   53 max resid (incl. the buffer)=  1.61056E-11
  prteigrs : nnsclo,ikpt=   25   54 max resid (incl. the buffer)=  1.16366E-09
  prteigrs : nnsclo,ikpt=   25   55 max resid (incl. the buffer)=  2.31970E-14
  prteigrs : nnsclo,ikpt=   25   56 max resid (incl. the buffer)=  2.32370E-14
  prteigrs : nnsclo,ikpt=   25   57 max resid (incl. the buffer)=  5.95265E-15
  prteigrs : nnsclo,ikpt=   25   58 max resid (incl. the buffer)=  3.99800E-08
  prteigrs : nnsclo,ikpt=   25   59 max resid (incl. the buffer)=  4.75852E-06
  prteigrs : nnsclo,ikpt=   25   60 max resid (incl. the buffer)=  2.61806E-10
  prteigrs : nnsclo,ikpt=   25   61 max resid (incl. the buffer)=  1.62766E-08
  prteigrs : nnsclo,ikpt=   25   62 max resid (incl. the buffer)=  6.49117E-10
  prteigrs : nnsclo,ikpt=   25   63 max resid (incl. the buffer)=  5.93142E-12
  prteigrs : nnsclo,ikpt=   25   64 max resid (incl. the buffer)=  5.80360E-06
  prteigrs : nnsclo,ikpt=   25   65 max resid (incl. the buffer)=  1.18508E-12
  prteigrs : nnsclo,ikpt=   25   66 max resid (incl. the buffer)=  2.09849E-09
  prteigrs : nnsclo,ikpt=   25   67 max resid (incl. the buffer)=  2.49659E-07
  prteigrs : nnsclo,ikpt=   25   68 max resid (incl. the buffer)=  3.68840E-09
  prteigrs : nnsclo,ikpt=   25   69 max resid (incl. the buffer)=  2.30759E-07
  prteigrs : nnsclo,ikpt=   25   70 max resid (incl. the buffer)=  1.40424E-11
  prteigrs : nnsclo,ikpt=   25   71 max resid (incl. the buffer)=  3.66515E-08
  prteigrs : nnsclo,ikpt=   25   72 max resid (incl. the buffer)=  4.57184E-13
  prteigrs : nnsclo,ikpt=   25   73 max resid (incl. the buffer)=  8.87796E-12
  prteigrs : nnsclo,ikpt=   25   74 max resid (incl. the buffer)=  9.51053E-11
  prteigrs : nnsclo,ikpt=   25   75 max resid (incl. the buffer)=  3.23609E-13
  prteigrs : nnsclo,ikpt=   25   76 max resid (incl. the buffer)=  1.20759E-07
  prteigrs : nnsclo,ikpt=   25   77 max resid (incl. the buffer)=  1.02233E-11
  prteigrs : nnsclo,ikpt=   25   78 max resid (incl. the buffer)=  1.10877E-13
  prteigrs : nnsclo,ikpt=   25   79 max resid (incl. the buffer)=  2.54659E-09
  prteigrs : nnsclo,ikpt=   25   80 max resid (incl. the buffer)=  1.89767E-16
  prteigrs : nnsclo,ikpt=   25   81 max resid (incl. the buffer)=  6.93904E-07
  prteigrs : nnsclo,ikpt=   25   82 max resid (incl. the buffer)=  1.68983E-11
  prteigrs : nnsclo,ikpt=   25   83 max resid (incl. the buffer)=  4.94071E-17
  prteigrs : nnsclo,ikpt=   25   84 max resid (incl. the buffer)=  1.76497E-09
  prteigrs : nnsclo,ikpt=   25   85 max resid (incl. the buffer)=  8.51209E-09
  prteigrs : nnsclo,ikpt=   25   86 max resid (incl. the buffer)=  6.06472E-11
  prteigrs : nnsclo,ikpt=   25   87 max resid (incl. the buffer)=  1.23447E-12
  prteigrs : nnsclo,ikpt=   25   88 max resid (incl. the buffer)=  6.90945E-11
  prteigrs : nnsclo,ikpt=   25   89 max resid (incl. the buffer)=  4.95288E-11
  prteigrs : nnsclo,ikpt=   25   90 max resid (incl. the buffer)=  1.26618E-10
  prteigrs : nnsclo,ikpt=   25   91 max resid (incl. the buffer)=  8.34650E-08
  prteigrs : nnsclo,ikpt=   25   92 max resid (incl. the buffer)=  4.29409E-08
  prteigrs : nnsclo,ikpt=   25   93 max resid (incl. the buffer)=  1.10140E-11
  prteigrs : nnsclo,ikpt=   25   94 max resid (incl. the buffer)=  1.65296E-13
  prteigrs : nnsclo,ikpt=   25   95 max resid (incl. the buffer)=  6.06907E-12
  prteigrs : nnsclo,ikpt=   25   96 max resid (incl. the buffer)=  2.41804E-10
  prteigrs : nnsclo,ikpt=   25   97 max resid (incl. the buffer)=  2.85543E-11
  prteigrs : nnsclo,ikpt=   25   98 max resid (incl. the buffer)=  1.05965E-05
  prteigrs : nnsclo,ikpt=   25   99 max resid (incl. the buffer)=  5.48343E-12
  prteigrs : nnsclo,ikpt=   25  100 max resid (incl. the buffer)=  8.99653E-10
  prteigrs : nnsclo,ikpt=   25  101 max resid (incl. the buffer)=  3.50167E-09
  prteigrs : nnsclo,ikpt=   25  102 max resid (incl. the buffer)=  3.88821E-13
  prteigrs : nnsclo,ikpt=   25  103 max resid (incl. the buffer)=  1.29702E-13
  prteigrs : nnsclo,ikpt=   25  104 max resid (incl. the buffer)=  5.66256E-15
  prteigrs : nnsclo,ikpt=   25  105 max resid (incl. the buffer)=  5.18325E-12
  prteigrs : nnsclo,ikpt=   25  106 max resid (incl. the buffer)=  3.13877E-06
  prteigrs : nnsclo,ikpt=   25  107 max resid (incl. the buffer)=  5.94350E-08
  prteigrs : nnsclo,ikpt=   25  108 max resid (incl. the buffer)=  7.18061E-07
  prteigrs : nnsclo,ikpt=   25  109 max resid (incl. the buffer)=  6.47072E-08
  prteigrs : nnsclo,ikpt=   25  110 max resid (incl. the buffer)=  3.84709E-13
  prteigrs : nnsclo,ikpt=   25  111 max resid (incl. the buffer)=  2.14929E-06
  prteigrs : nnsclo,ikpt=   25  112 max resid (incl. the buffer)=  8.96949E-11
  prteigrs : nnsclo,ikpt=   25  113 max resid (incl. the buffer)=  1.03940E-10
  prteigrs : nnsclo,ikpt=   25  114 max resid (incl. the buffer)=  8.76067E-13
  prteigrs : nnsclo,ikpt=   25  115 max resid (incl. the buffer)=  9.70703E-07
  prteigrs : nnsclo,ikpt=   25  116 max resid (incl. the buffer)=  4.49513E-08
  prteigrs : nnsclo,ikpt=   25  117 max resid (incl. the buffer)=  1.10498E-07
  prteigrs : nnsclo,ikpt=   25  118 max resid (incl. the buffer)=  3.35345E-12
  prteigrs : nnsclo,ikpt=   25  119 max resid (incl. the buffer)=  1.36101E-15
  prteigrs : nnsclo,ikpt=   25  120 max resid (incl. the buffer)=  1.28136E-09
  prteigrs : nnsclo,ikpt=   25  121 max resid (incl. the buffer)=  1.59816E-12
  prteigrs : nnsclo,ikpt=   25  122 max resid (incl. the buffer)=  5.78530E-10
  prteigrs : nnsclo,ikpt=   25  123 max resid (incl. the buffer)=  2.05294E-08
  prteigrs : nnsclo,ikpt=   25  124 max resid (incl. the buffer)=  3.44917E-08
  prteigrs : nnsclo,ikpt=   25  125 max resid (incl. the buffer)=  1.56041E-11
  prteigrs : nnsclo,ikpt=   25  126 max resid (incl. the buffer)=  1.21836E-12
  prteigrs : nnsclo,ikpt=   25  127 max resid (incl. the buffer)=  2.03180E-12
  prteigrs : nnsclo,ikpt=   25  128 max resid (incl. the buffer)=  6.35419E-15


 scprqt:  WARNING -
  nstep=   25 was not enough non-SCF iterations to converge;
  maximum residual=  1.546E-13 exceeds tolwfr=  1.000E-20


--- !ResultsGS
iteration_state: {dtset: 2, }
comment   : Summary of ground state results
lattice_vectors:
- [  0.0000000,   3.0150000,   3.0150000, ]
- [  3.0150000,   0.0000000,   3.0150000, ]
- [ 16.4850000,  16.4850000,   0.0000000, ]
lattice_lengths: [   4.26385,    4.26385,   23.31331, ]
lattice_angles: [ 60.000,  60.000,  60.000, ] # degrees, (23, 13, 12)
lattice_volume:   2.9970472E+02
convergence: {deltae:  0.000E+00, res2:  0.000E+00, residm:  1.546E-13, diffor:  0.000E+00, }
etotal    :  -8.82784920E+01
entropy   :   0.00000000E+00
fermie    :   4.13513056E-01
cartesian_stress_tensor: null
pressure_GPa: null
xred      :
- [  0.0000E+00,   0.0000E+00,   0.0000E+00, Mo]
- [  3.3333E-01,   3.3333E-01,  -9.8000E-02,  S]
- [  3.3333E-01,   3.3333E-01,   9.8000E-02,  S]
cartesian_forces: null
force_length_stats: {min: null, max: null, mean: null, }
...

 Integrated electronic density in atomic spheres:
 ------------------------------------------------
 Atom  Sphere_radius  Integrated_density
    1        2.00000         14.90852425
    2        2.00000          8.41554780
    3        2.00000          7.22354951
================================================================================

 ----iterations are completed or convergence reached----

 Mean square residual over all n,k,spin=   71.937E-18; max=  15.465E-14
 reduced coordinates (array xred) for    3 atoms
       0.000000000000      0.000000000000      0.000000000000
       0.333333333333      0.333333333333     -0.098000000000
       0.333333333333      0.333333333333      0.098000000000

 cartesian coordinates (angstrom) at end:
    1      0.00000000000000     0.00000000000000     0.00000000000000
    2     -0.32307856116045    -0.32307856116045     1.06364618926590
    3      1.38672475042635     1.38672475042635     1.06364618926590
 length scales=  6.030000000000  6.030000000000 32.970000000000 bohr
              =  3.190938567798  3.190938567798 17.446972567212 angstroms
 prteigrs : about to open file o_DS2_EIG
 Eigenvalues (hartree) for nkpt= 128  k points:
 kpt#   1, nband= 40, wtk=  0.00781, kpt= -0.2500 -0.1250  0.0000 (reduced coord)
  -2.16805   -1.35018   -1.19149   -1.11532   -0.33914   -0.30406   -0.21685   -0.19530
  -0.09933    0.03574    0.08738    0.32333    0.41341    0.43057    0.49720    0.53182
   0.58522    0.62912    0.65729    0.68576    0.75549    0.83107    0.86957    0.94020
   0.96702    1.05582    1.10231    1.17339    1.24007    1.28194    1.32650    1.39304
   1.41378    1.45698    1.47582    1.49796    1.52524    1.53220    1.54281    1.60970
 prteigrs : prtvol=0 or 1, do not print more k-points.


================================================================================
== DATASET  3 ==================================================================
-   mpi_nproc: 1, omp_nthreads: -1 (-1 if OMP is not activated)


--- !DatasetInfo
iteration_state: {dtset: 3, }
dimensions: {natom: 3, nkpt: 256, mband: 40, nsppol: 1, nspinor: 1, nspden: 1, mpw: 1314, }
cutoff_energies: {ecut:  20.0, pawecutdg:  -1.0, }
electrons: {nelect:   2.60000000E+01, charge:   0.00000000E+00, occopt:   1.00000000E+00, tsmear:   1.00000000E-02, }
meta: {optdriver: 0, ionmov: 0, optcell: 0, iscf: -2, paral_kgb: 0, }
...

 mkfilename : getwfk/=0, take file _WFK from output of DATASET   2.

 mkfilename : getden/=0, take file _DEN from output of DATASET   1.

 Exchange-correlation functional for the present dataset will be:
  GGA: Perdew-Burke-Ernzerhof functional - ixc=11
 Citation for XC functional:
  J.P.Perdew, K.Burke, M.Ernzerhof, PRL 77, 3865 (1996)

 Real(R)+Recip(G) space primitive vectors, cartesian coordinates (Bohr,Bohr^-1):
 R(1)=  0.0000000  3.0150000  3.0150000  G(1)= -0.1658375  0.1658375  0.1658375
 R(2)=  3.0150000  0.0000000  3.0150000  G(2)=  0.1658375 -0.1658375  0.1658375
 R(3)= 16.4850000 16.4850000  0.0000000  G(3)=  0.0303306  0.0303306 -0.0303306
 Unit cell volume ucvol=  2.9970472E+02 bohr^3
 Angles (23,13,12)=  6.00000000E+01  6.00000000E+01  6.00000000E+01 degrees

 getcut: wavevector=  0.0000  0.0000  0.0000  ngfft=  18  18  96
         ecut(hartree)=     20.000   => boxcut(ratio)=   2.04946
--------------------------------------------------------------------------------

-inwffil : will read wavefunctions from disk file o_DS2_WFK

================================================================================
 prteigrs : about to open file o_DS3_EIG
 Non-SCF case, kpt    1 ( -0.25000 -0.12500  0.00000), residuals and eigenvalues=
  8.19E-23  1.24E-22  1.32E-21  1.21E-21  1.20E-21  1.30E-22  2.04E-21  1.40E-21
  1.66E-21  1.89E-21  2.01E-21  4.85E-21  3.27E-21  2.09E-21  4.83E-21  1.53E-21
  8.87E-21  7.37E-21  2.20E-21  6.14E-21  6.16E-21  7.85E-21  4.24E-21  4.14E-21
  6.98E-21  5.99E-21  9.06E-21  3.40E-21  5.53E-21  9.21E-21  7.15E-21  7.52E-21
  5.74E-21  4.58E-21  8.14E-21  8.48E-21  8.50E-21  4.32E-21  4.78E-21  6.38E-12
 -2.1680E+00 -1.3502E+00 -1.1915E+00 -1.1153E+00 -3.3914E-01 -3.0406E-01
 -2.1685E-01 -1.9530E-01 -9.9331E-02  3.5744E-02  8.7376E-02  3.2333E-01
  4.1341E-01  4.3057E-01  4.9720E-01  5.3182E-01  5.8522E-01  6.2912E-01
  6.5729E-01  6.8576E-01  7.5549E-01  8.3107E-01  8.6957E-01  9.4020E-01
  9.6702E-01  1.0558E+00  1.1023E+00  1.1734E+00  1.2401E+00  1.2819E+00
  1.3265E+00  1.3930E+00  1.4138E+00  1.4570E+00  1.4758E+00  1.4980E+00
  1.5252E+00  1.5322E+00  1.5428E+00  1.6097E+00
  prteigrs : nnsclo,ikpt=   25    1 max resid (incl. the buffer)=  6.38263E-12
 prteigrs : prtvol=0 or 1, do not print more k-points.

  prteigrs : nnsclo,ikpt=   25    2 max resid (incl. the buffer)=  1.44460E-07
  prteigrs : nnsclo,ikpt=   25    3 max resid (incl. the buffer)=  1.20677E-10
  prteigrs : nnsclo,ikpt=   25    4 max resid (incl. the buffer)=  7.28099E-11
  prteigrs : nnsclo,ikpt=   25    5 max resid (incl. the buffer)=  9.33330E-09
  prteigrs : nnsclo,ikpt=   25    6 max resid (incl. the buffer)=  2.29025E-14
  prteigrs : nnsclo,ikpt=   25    7 max resid (incl. the buffer)=  4.96193E-05
  prteigrs : nnsclo,ikpt=   25    8 max resid (incl. the buffer)=  2.16117E-07
  prteigrs : nnsclo,ikpt=   25    9 max resid (incl. the buffer)=  1.40100E-14
  prteigrs : nnsclo,ikpt=   25   10 max resid (incl. the buffer)=  1.32375E-14
  prteigrs : nnsclo,ikpt=   25   11 max resid (incl. the buffer)=  1.43712E-07
  prteigrs : nnsclo,ikpt=   25   12 max resid (incl. the buffer)=  5.51027E-12
  prteigrs : nnsclo,ikpt=   25   13 max resid (incl. the buffer)=  2.39298E-10
  prteigrs : nnsclo,ikpt=   25   14 max resid (incl. the buffer)=  4.33439E-08
  prteigrs : nnsclo,ikpt=   25   15 max resid (incl. the buffer)=  3.04652E-07
  prteigrs : nnsclo,ikpt=   25   16 max resid (incl. the buffer)=  1.35788E-06
  prteigrs : nnsclo,ikpt=   25   17 max resid (incl. the buffer)=  1.48171E-07
  prteigrs : nnsclo,ikpt=   25   18 max resid (incl. the buffer)=  3.39312E-08
  prteigrs : nnsclo,ikpt=   25   19 max resid (incl. the buffer)=  8.87926E-11
  prteigrs : nnsclo,ikpt=   25   20 max resid (incl. the buffer)=  1.48934E-12
  prteigrs : nnsclo,ikpt=   25   21 max resid (incl. the buffer)=  7.36715E-11
  prteigrs : nnsclo,ikpt=   25   22 max resid (incl. the buffer)=  2.90525E-13
  prteigrs : nnsclo,ikpt=   25   23 max resid (incl. the buffer)=  3.26291E-07
  prteigrs : nnsclo,ikpt=   25   24 max resid (incl. the buffer)=  1.41363E-10
  prteigrs : nnsclo,ikpt=   25   25 max resid (incl. the buffer)=  3.67936E-12
  prteigrs : nnsclo,ikpt=   25   26 max resid (incl. the buffer)=  6.72155E-06
  prteigrs : nnsclo,ikpt=   25   27 max resid (incl. the buffer)=  2.35869E-10
  prteigrs : nnsclo,ikpt=   25   28 max resid (incl. the buffer)=  3.75492E-11
  prteigrs : nnsclo,ikpt=   25   29 max resid (incl. the buffer)=  3.99442E-09
  prteigrs : nnsclo,ikpt=   25   30 max resid (incl. the buffer)=  2.35199E-08
  prteigrs : nnsclo,ikpt=   25   31 max resid (incl. the buffer)=  2.71091E-07
  prteigrs : nnsclo,ikpt=   25   32 max resid (incl. the buffer)=  1.24274E-10
  prteigrs : nnsclo,ikpt=   25   33 max resid (incl. the buffer)=  8.22542E-14
  prteigrs : nnsclo,ikpt=   25   34 max resid (incl. the buffer)=  1.26901E-10
  prteigrs : nnsclo,ikpt=   25   35 max resid (incl. the buffer)=  1.35021E-10
  prteigrs : nnsclo,ikpt=   25   36 max resid (incl. the buffer)=  9.45849E-09
  prteigrs : nnsclo,ikpt=   25   37 max resid (incl. the buffer)=  8.79614E-08
  prteigrs : nnsclo,ikpt=   25   38 max resid (incl. the buffer)=  3.38922E-08
  prteigrs : nnsclo,ikpt=   25   39 max resid (incl. the buffer)=  7.26989E-09
  prteigrs : nnsclo,ikpt=   25   40 max resid (incl. the buffer)=  4.29286E-12
  prteigrs : nnsclo,ikpt=   25   41 max resid (incl. the buffer)=  3.64826E-16
  prteigrs : nnsclo,ikpt=   25   42 max resid (incl. the buffer)=  6.51539E-12
  prteigrs : nnsclo,ikpt=   25   43 max resid (incl. the buffer)=  5.77648E-09
  prteigrs : nnsclo,ikpt=   25   44 max resid (incl. the buffer)=  8.65980E-09
  prteigrs : nnsclo,ikpt=   25   45 max resid (incl. the buffer)=  1.61490E-08
  prteigrs : nnsclo,ikpt=   25   46 max resid (incl. the buffer)=  6.77397E-10
  prteigrs : nnsclo,ikpt=   25   47 max resid (incl. the buffer)=  1.90173E-09
  prteigrs : nnsclo,ikpt=   25   48 max resid (incl. the buffer)=  5.64163E-06
  prteigrs : nnsclo,ikpt=   25   49 max resid (incl. the buffer)=  6.17496E-12
  prteigrs : nnsclo,ikpt=   25   50 max resid (incl. the buffer)=  1.83061E-13
  prteigrs : nnsclo,ikpt=   25   51 max resid (incl. the buffer)=  4.98558E-13
  prteigrs : nnsclo,ikpt=   25   52 max resid (incl. the buffer)=  1.54327E-10
  prteigrs : nnsclo,ikpt=   25   53 max resid (incl. the buffer)=  2.97066E-12
  prteigrs : nnsclo,ikpt=   25   54 max resid (incl. the buffer)=  3.24488E-10
  prteigrs : nnsclo,ikpt=   25   55 max resid (incl. the buffer)=  5.88483E-15
  prteigrs : nnsclo,ikpt=   25   56 max resid (incl. the buffer)=  3.49692E-15
  prteigrs : nnsclo,ikpt=   25   57 max resid (incl. the buffer)=  8.98655E-16
  prteigrs : nnsclo,ikpt=   25   58 max resid (incl. the buffer)=  1.63572E-08
  prteigrs : nnsclo,ikpt=   25   59 max resid (incl. the buffer)=  4.41087E-06
  prteigrs : nnsclo,ikpt=   25   60 max resid (incl. the buffer)=  5.50087E-11
  prteigrs : nnsclo,ikpt=   25   61 max resid (incl. the buffer)=  2.10760E-09
  prteigrs : nnsclo,ikpt=   25   62 max resid (incl. the buffer)=  6.20508E-10
  prteigrs : nnsclo,ikpt=   25   63 max resid (incl. the buffer)=  1.34053E-12
  prteigrs : nnsclo,ikpt=   25   64 max resid (incl. the buffer)=  2.99492E-06
  prteigrs : nnsclo,ikpt=   25   65 max resid (incl. the buffer)=  1.71594E-13
  prteigrs : nnsclo,ikpt=   25   66 max resid (incl. the buffer)=  1.17995E-09
  prteigrs : nnsclo,ikpt=   25   67 max resid (incl. the buffer)=  9.94561E-08
  prteigrs : nnsclo,ikpt=   25   68 max resid (incl. the buffer)=  4.81564E-10
  prteigrs : nnsclo,ikpt=   25   69 max resid (incl. the buffer)=  1.93191E-07
  prteigrs : nnsclo,ikpt=   25   70 max resid (incl. the buffer)=  2.97066E-12
  prteigrs : nnsclo,ikpt=   25   71 max resid (incl. the buffer)=  4.38654E-12
  prteigrs : nnsclo,ikpt=   25   72 max resid (incl. the buffer)=  1.83061E-13
  prteigrs : nnsclo,ikpt=   25   73 max resid (incl. the buffer)=  3.71501E-11
  prteigrs : nnsclo,ikpt=   25   74 max resid (incl. the buffer)=  1.71096E-13
  prteigrs : nnsclo,ikpt=   25   75 max resid (incl. the buffer)=  1.87461E-12
  prteigrs : nnsclo,ikpt=   25   76 max resid (incl. the buffer)=  6.41733E-11
  prteigrs : nnsclo,ikpt=   25   77 max resid (incl. the buffer)=  6.92857E-14
  prteigrs : nnsclo,ikpt=   25   78 max resid (incl. the buffer)=  1.51837E-07
  prteigrs : nnsclo,ikpt=   25   79 max resid (incl. the buffer)=  1.40917E-11
  prteigrs : nnsclo,ikpt=   25   80 max resid (incl. the buffer)=  1.69680E-14
  prteigrs : nnsclo,ikpt=   25   81 max resid (incl. the buffer)=  1.14358E-09
  prteigrs : nnsclo,ikpt=   25   82 max resid (incl. the buffer)=  1.64239E-18
  prteigrs : nnsclo,ikpt=   25   83 max resid (incl. the buffer)=  5.07749E-07
  prteigrs : nnsclo,ikpt=   25   84 max resid (incl. the buffer)=  1.16543E-11
  prteigrs : nnsclo,ikpt=   25   85 max resid (incl. the buffer)=  2.23141E-17
  prteigrs : nnsclo,ikpt=   25   86 max resid (incl. the buffer)=  5.71673E-10
  prteigrs : nnsclo,ikpt=   25   87 max resid (incl. the buffer)=  4.18697E-10
  prteigrs : nnsclo,ikpt=   25   88 max resid (incl. the buffer)=  2.68034E-11
  prteigrs : nnsclo,ikpt=   25   89 max resid (incl. the buffer)=  4.00509E-14
  prteigrs : nnsclo,ikpt=   25   90 max resid (incl. the buffer)=  1.95011E-11
  prteigrs : nnsclo,ikpt=   25   91 max resid (incl. the buffer)=  2.01934E-11
  prteigrs : nnsclo,ikpt=   25   92 max resid (incl. the buffer)=  8.79614E-08
  prteigrs : nnsclo,ikpt=   25   93 max resid (incl. the buffer)=  8.22542E-14
  prteigrs : nnsclo,ikpt=   25   94 max resid (incl. the buffer)=  1.11461E-10
  prteigrs : nnsclo,ikpt=   25   95 max resid (incl. the buffer)=  1.68369E-08
  prteigrs : nnsclo,ikpt=   25   96 max resid (incl. the buffer)=  1.55262E-08
  prteigrs : nnsclo,ikpt=   25   97 max resid (incl. the buffer)=  1.24274E-10
  prteigrs : nnsclo,ikpt=   25   98 max resid (incl. the buffer)=  1.47797E-12
  prteigrs : nnsclo,ikpt=   25   99 max resid (incl. the buffer)=  5.11600E-14
  prteigrs : nnsclo,ikpt=   25  100 max resid (incl. the buffer)=  5.94305E-13
  prteigrs : nnsclo,ikpt=   25  101 max resid (incl. the buffer)=  1.47815E-10
  prteigrs : nnsclo,ikpt=   25  102 max resid (incl. the buffer)=  9.33741E-12
  prteigrs : nnsclo,ikpt=   25  103 max resid (incl. the buffer)=  7.77719E-06
  prteigrs : nnsclo,ikpt=   25  104 max resid (incl. the buffer)=  1.37548E-12
  prteigrs : nnsclo,ikpt=   25  105 max resid (incl. the buffer)=  9.93885E-10
  prteigrs : nnsclo,ikpt=   25  106 max resid (incl. the buffer)=  1.21062E-09
  prteigrs : nnsclo,ikpt=   25  107 max resid (incl. the buffer)=  8.55861E-14
  prteigrs : nnsclo,ikpt=   25  108 max resid (incl. the buffer)=  3.72564E-14
  prteigrs : nnsclo,ikpt=   25  109 max resid (incl. the buffer)=  5.16783E-16
  prteigrs : nnsclo,ikpt=   25  110 max resid (incl. the buffer)=  4.54620E-12
  prteigrs : nnsclo,ikpt=   25  111 max resid (incl. the buffer)=  2.96563E-06
  prteigrs : nnsclo,ikpt=   25  112 max resid (incl. the buffer)=  3.25915E-08
  prteigrs : nnsclo,ikpt=   25  113 max resid (incl. the buffer)=  8.87926E-11
  prteigrs : nnsclo,ikpt=   25  114 max resid (incl. the buffer)=  3.25915E-08
  prteigrs : nnsclo,ikpt=   25  115 max resid (incl. the buffer)=  2.96563E-06
  prteigrs : nnsclo,ikpt=   25  116 max resid (incl. the buffer)=  1.48171E-07
  prteigrs : nnsclo,ikpt=   25  117 max resid (incl. the buffer)=  5.16783E-16
  prteigrs : nnsclo,ikpt=   25  118 max resid (incl. the buffer)=  3.72564E-14
  prteigrs : nnsclo,ikpt=   25  119 max resid (incl. the buffer)=  8.55861E-14
  prteigrs : nnsclo,ikpt=   25  120 max resid (incl. the buffer)=  1.21062E-09
  prteigrs : nnsclo,ikpt=   25  121 max resid (incl. the buffer)=  9.93885E-10
  prteigrs : nnsclo,ikpt=   25  122 max resid (incl. the buffer)=  6.95604E-09
  prteigrs : nnsclo,ikpt=   25  123 max resid (incl. the buffer)=  7.77719E-06
  prteigrs : nnsclo,ikpt=   25  124 max resid (incl. the buffer)=  9.33741E-12
  prteigrs : nnsclo,ikpt=   25  125 max resid (incl. the buffer)=  1.47815E-10
  prteigrs : nnsclo,ikpt=   25  126 max resid (incl. the buffer)=  5.94305E-13
  prteigrs : nnsclo,ikpt=   25  127 max resid (incl. the buffer)=  5.11600E-14
[...]
                      -3.75000000E-01 -1.25000000E-01 -1.25000000E-01
                      -3.75000000E-01  5.00000000E-01  0.00000000E+00
              kpt6    -2.50000000E-01 -1.25000000E-01  0.00000000E+00
                      -1.25000000E-01 -1.25000000E-01  1.25000000E-01
                      -1.25000000E-01 -2.50000000E-01  0.00000000E+00
                       5.00000000E-01 -1.25000000E-01  0.00000000E+00
                      -3.75000000E-01 -1.25000000E-01  1.25000000E-01
                      -2.50000000E-01 -1.25000000E-01  2.50000000E-01
                      -1.25000000E-01 -1.25000000E-01  3.75000000E-01
                      -3.75000000E-01 -2.50000000E-01  0.00000000E+00
                      -2.50000000E-01 -2.50000000E-01  1.25000000E-01
                      -1.25000000E-01 -2.50000000E-01  2.50000000E-01
                       2.50000000E-01 -1.25000000E-01  0.00000000E+00
                       3.75000000E-01 -1.25000000E-01  1.25000000E-01
                       5.00000000E-01 -1.25000000E-01  2.50000000E-01
                      -3.75000000E-01 -1.25000000E-01  3.75000000E-01
                      -2.50000000E-01 -1.25000000E-01  5.00000000E-01
                      -1.25000000E-01 -1.25000000E-01 -3.75000000E-01
                      -2.50000000E-01 -3.75000000E-01  0.00000000E+00
                      -1.25000000E-01 -3.75000000E-01  1.25000000E-01
                       3.75000000E-01 -2.50000000E-01  0.00000000E+00
                       5.00000000E-01 -2.50000000E-01  1.25000000E-01
                      -3.75000000E-01 -2.50000000E-01  2.50000000E-01
                      -2.50000000E-01 -2.50000000E-01  3.75000000E-01
                      -1.25000000E-01 -2.50000000E-01  5.00000000E-01
                       0.00000000E+00 -1.25000000E-01  0.00000000E+00
                       1.25000000E-01 -1.25000000E-01  1.25000000E-01
                       2.50000000E-01 -1.25000000E-01  2.50000000E-01
                       3.75000000E-01 -1.25000000E-01  3.75000000E-01
                       5.00000000E-01 -1.25000000E-01  5.00000000E-01
                      -3.75000000E-01 -1.25000000E-01 -3.75000000E-01
                      -2.50000000E-01 -1.25000000E-01 -2.50000000E-01
                      -1.25000000E-01 -1.25000000E-01 -1.25000000E-01
                      -1.25000000E-01  5.00000000E-01  0.00000000E+00
                       5.00000000E-01 -3.75000000E-01  0.00000000E+00
                      -3.75000000E-01 -3.75000000E-01  1.25000000E-01
                      -2.50000000E-01 -3.75000000E-01  2.50000000E-01
                      -1.25000000E-01 -3.75000000E-01  3.75000000E-01
                       1.25000000E-01 -2.50000000E-01  0.00000000E+00
                       2.50000000E-01 -2.50000000E-01  1.25000000E-01
                       3.75000000E-01 -2.50000000E-01  2.50000000E-01
                       5.00000000E-01 -2.50000000E-01  3.75000000E-01
                      -3.75000000E-01 -2.50000000E-01  5.00000000E-01
                      -2.50000000E-01 -2.50000000E-01 -3.75000000E-01
                      -1.25000000E-01 -2.50000000E-01 -2.50000000E-01
                       0.00000000E+00 -1.25000000E-01  2.50000000E-01
                       1.25000000E-01 -1.25000000E-01  3.75000000E-01
                       2.50000000E-01 -1.25000000E-01  5.00000000E-01
                       3.75000000E-01 -1.25000000E-01 -3.75000000E-01
                       5.00000000E-01 -1.25000000E-01 -2.50000000E-01
                      -3.75000000E-01 -1.25000000E-01 -1.25000000E-01
                      -3.75000000E-01  5.00000000E-01  0.00000000E+00
                       outvar_i_n : Printing only first  50 k-points.
           kptopt1          1
           kptopt2          1
           kptopt3          3
           kptopt4          3
           kptopt5          3
           kptopt6          3
         kptrlatt        8    0    0      0    8    0     -4  -12    4
          kptrlen      3.41108311E+01
P           mkmem1        128
P           mkmem2        128
P           mkmem3        256
P           mkmem4        256
P           mkmem5        256
P           mkmem6        256
P          mkqmem1        128
P          mkqmem2        128
P          mkqmem3        256
P          mkqmem4        256
P          mkqmem5        256
P          mkqmem6        256
P          mk1mem1        128
P          mk1mem2        128
P          mk1mem3        256
P          mk1mem4        256
P          mk1mem5        256
P          mk1mem6        256
            natom           3
            nband1         20
            nband2         40
            nband3         40
            nband4         40
            nband5         40
            nband6         40
           nbdbuf1          0
           nbdbuf2          2
           nbdbuf3          2
           nbdbuf4          2
           nbdbuf5          2
           nbdbuf6          2
           ndtset           6
            ngfft          18      18      96
             nkpt1        128
             nkpt2        128
             nkpt3        256
             nkpt4        256
             nkpt5        256
             nkpt6        256
            nline1          4
            nline2          4
            nline3          4
            nline4          0
            nline5          0
            nline6          0
             nqpt1          0
             nqpt2          0
             nqpt3          0
             nqpt4          1
             nqpt5          1
             nqpt6          1
            nstep1         25
            nstep2         25
            nstep3         25
            nstep4          1
            nstep5          1
            nstep6          1
             nsym           1
           ntypat           2
              occ1     2.000000  2.000000  2.000000  2.000000  2.000000  2.000000
                       2.000000  2.000000  2.000000  2.000000  2.000000  2.000000
                       2.000000  0.000000  0.000000  0.000000  0.000000  0.000000
                       0.000000  0.000000
              occ4     2.000000  2.000000  2.000000  2.000000  2.000000  2.000000
                       2.000000  2.000000  2.000000  2.000000  2.000000  2.000000
                       2.000000  0.000000  0.000000  0.000000  0.000000  0.000000
                       0.000000  0.000000  0.000000  0.000000  0.000000  0.000000
                       0.000000  0.000000  0.000000  0.000000  0.000000  0.000000
                       0.000000  0.000000  0.000000  0.000000  0.000000  0.000000
                       0.000000  0.000000  0.000000  0.000000
              occ5     2.000000  2.000000  2.000000  2.000000  2.000000  2.000000
                       2.000000  2.000000  2.000000  2.000000  2.000000  2.000000
                       2.000000  0.000000  0.000000  0.000000  0.000000  0.000000
                       0.000000  0.000000  0.000000  0.000000  0.000000  0.000000
                       0.000000  0.000000  0.000000  0.000000  0.000000  0.000000
                       0.000000  0.000000  0.000000  0.000000  0.000000  0.000000
                       0.000000  0.000000  0.000000  0.000000
              occ6     2.000000  2.000000  2.000000  2.000000  2.000000  2.000000
                       2.000000  2.000000  2.000000  2.000000  2.000000  2.000000
                       2.000000  0.000000  0.000000  0.000000  0.000000  0.000000
                       0.000000  0.000000  0.000000  0.000000  0.000000  0.000000
                       0.000000  0.000000  0.000000  0.000000  0.000000  0.000000
                       0.000000  0.000000  0.000000  0.000000  0.000000  0.000000
                       0.000000  0.000000  0.000000  0.000000
        optdriver1          0
        optdriver2          0
        optdriver3          0
        optdriver4          1
        optdriver5          1
        optdriver6          1
            prtwf1          1
            prtwf2          1
            prtwf3          1
            prtwf4          3
            prtwf5          3
            prtwf6          3
            rfdir1          0       0       0
            rfdir2          0       0       0
            rfdir3          0       0       0
            rfdir4          1       0       0
            rfdir5          0       1       0
            rfdir6          0       0       1
           rfelfd1          0
           rfelfd2          0
           rfelfd3          0
           rfelfd4          2
           rfelfd5          2
           rfelfd6          2
            rprim      0.0000000000E+00  5.0000000000E-01  5.0000000000E-01
                       5.0000000000E-01  0.0000000000E+00  5.0000000000E-01
                       5.0000000000E-01  5.0000000000E-01  0.0000000000E+00
           shiftk      0.00000000E+00  0.00000000E+00  5.00000000E-01
          spgroup           1
           strten1    -1.7335614205E-02 -1.7335614204E-02 -3.6729716941E-02
                       9.0377596206E-03  9.0377596199E-03  4.4647461867E-04
           tolwfr      1.00000000E-20
            typat      1  2  2
              wtk1       0.00781    0.00781    0.00781    0.00781    0.00781    0.00781
                         0.00781    0.00781    0.00781    0.00781    0.00781    0.00781
                         0.00781    0.00781    0.00781    0.00781    0.00781    0.00781
                         0.00781    0.00781    0.00781    0.00781    0.00781    0.00781
                         0.00781    0.00781    0.00781    0.00781    0.00781    0.00781
                         0.00781    0.00781    0.00781    0.00781    0.00781    0.00781
                         0.00781    0.00781    0.00781    0.00781    0.00781    0.00781
                         0.00781    0.00781    0.00781    0.00781    0.00781    0.00781
                         0.00781    0.00781
              wtk2       0.00781    0.00781    0.00781    0.00781    0.00781    0.00781
                         0.00781    0.00781    0.00781    0.00781    0.00781    0.00781
                         0.00781    0.00781    0.00781    0.00781    0.00781    0.00781
                         0.00781    0.00781    0.00781    0.00781    0.00781    0.00781
                         0.00781    0.00781    0.00781    0.00781    0.00781    0.00781
                         0.00781    0.00781    0.00781    0.00781    0.00781    0.00781
                         0.00781    0.00781    0.00781    0.00781    0.00781    0.00781
                         0.00781    0.00781    0.00781    0.00781    0.00781    0.00781
                         0.00781    0.00781
              wtk3       0.00391    0.00391    0.00391    0.00391    0.00391    0.00391
                         0.00391    0.00391    0.00391    0.00391    0.00391    0.00391
                         0.00391    0.00391    0.00391    0.00391    0.00391    0.00391
                         0.00391    0.00391    0.00391    0.00391    0.00391    0.00391
                         0.00391    0.00391    0.00391    0.00391    0.00391    0.00391
                         0.00391    0.00391    0.00391    0.00391    0.00391    0.00391
                         0.00391    0.00391    0.00391    0.00391    0.00391    0.00391
                         0.00391    0.00391    0.00391    0.00391    0.00391    0.00391
                         0.00391    0.00391
              wtk4       0.00391    0.00391    0.00391    0.00391    0.00391    0.00391
                         0.00391    0.00391    0.00391    0.00391    0.00391    0.00391
                         0.00391    0.00391    0.00391    0.00391    0.00391    0.00391
                         0.00391    0.00391    0.00391    0.00391    0.00391    0.00391
                         0.00391    0.00391    0.00391    0.00391    0.00391    0.00391
                         0.00391    0.00391    0.00391    0.00391    0.00391    0.00391
                         0.00391    0.00391    0.00391    0.00391    0.00391    0.00391
                         0.00391    0.00391    0.00391    0.00391    0.00391    0.00391
                         0.00391    0.00391
              wtk5       0.00391    0.00391    0.00391    0.00391    0.00391    0.00391
                         0.00391    0.00391    0.00391    0.00391    0.00391    0.00391
                         0.00391    0.00391    0.00391    0.00391    0.00391    0.00391
                         0.00391    0.00391    0.00391    0.00391    0.00391    0.00391
                         0.00391    0.00391    0.00391    0.00391    0.00391    0.00391
                         0.00391    0.00391    0.00391    0.00391    0.00391    0.00391
                         0.00391    0.00391    0.00391    0.00391    0.00391    0.00391
                         0.00391    0.00391    0.00391    0.00391    0.00391    0.00391
                         0.00391    0.00391
              wtk6       0.00391    0.00391    0.00391    0.00391    0.00391    0.00391
                         0.00391    0.00391    0.00391    0.00391    0.00391    0.00391
                         0.00391    0.00391    0.00391    0.00391    0.00391    0.00391
                         0.00391    0.00391    0.00391    0.00391    0.00391    0.00391
                         0.00391    0.00391    0.00391    0.00391    0.00391    0.00391
                         0.00391    0.00391    0.00391    0.00391    0.00391    0.00391
                         0.00391    0.00391    0.00391    0.00391    0.00391    0.00391
                         0.00391    0.00391    0.00391    0.00391    0.00391    0.00391
                         0.00391    0.00391
                       outvars : Printing only first  50 k-points.
           xangst      0.0000000000E+00  0.0000000000E+00  0.0000000000E+00
                      -3.2307856116E-01 -3.2307856116E-01  1.0636461893E+00
                       1.3867247504E+00  1.3867247504E+00  1.0636461893E+00
            xcart      0.0000000000E+00  0.0000000000E+00  0.0000000000E+00
                      -6.1053000000E-01 -6.1053000000E-01  2.0100000000E+00
                       2.6205300000E+00  2.6205300000E+00  2.0100000000E+00
             xred      0.0000000000E+00  0.0000000000E+00  0.0000000000E+00
                       3.3333333333E-01  3.3333333333E-01 -9.8000000000E-02
                       3.3333333333E-01  3.3333333333E-01  9.8000000000E-02
            znucl       42.00000   16.00000

================================================================================


- Timing analysis has been suppressed with timopt=0



================================================================================

 Suggested references for the acknowledgment of ABINIT usage.

 The users of ABINIT have little formal obligations with respect to the ABINIT group
 (those specified in the GNU General Public License, http://www.gnu.org/copyleft/gpl.txt).
 However, it is common practice in the scientific literature,
 to acknowledge the efforts of people that have made the research possible.
 In this spirit, please find below suggested citations of work written by ABINIT developers,
 corresponding to implementations inside of ABINIT that you have used in the present run.
 Note also that it will be of great value to readers of publications presenting these results,
 to read papers enabling them to understand the theoretical formalism and details
 of the ABINIT implementation.
 For information on why they are suggested, see also https://docs.abinit.org/theory/acknowledgments.
-
- [1] The Abinit project: Impact, environment and recent developments.
- Computer Phys. Comm. 248, 107042 (2020).
- X.Gonze, B. Amadon, G. Antonius, F.Arnardi, L.Baguet, J.-M.Beuken,
- J.Bieder, F.Bottin, J.Bouchet, E.Bousquet, N.Brouwer, F.Bruneval,
- G.Brunin, T.Cavignac, J.-B. Charraud, Wei Chen, M.Cote, S.Cottenier,
- J.Denier, G.Geneste, Ph.Ghosez, M.Giantomassi, Y.Gillet, O.Gingras,
- D.R.Hamann, G.Hautier, Xu He, N.Helbig, N.Holzwarth, Y.Jia, F.Jollet,
- W.Lafargue-Dit-Hauret, K.Lejaeghere, M.A.L.Marques, A.Martin, C.Martins,
- H.P.C. Miranda, F.Naccarato, K. Persson, G.Petretto, V.Planes, Y.Pouillon,
- S.Prokhorenko, F.Ricci, G.-M.Rignanese, A.H.Romero, M.M.Schmitt, M.Torrent,
- M.J.van Setten, B.Van Troeye, M.J.Verstraete, G.Zerah and J.W.Zwanzig
- Comment: the fifth generic paper describing the ABINIT project.
- Note that a version of this paper, that is not formatted for Computer Phys. Comm. 
- is available at https://www.abinit.org/sites/default/files/ABINIT20.pdf .
- The licence allows the authors to put it on the Web.
- DOI and bibtex: see https://docs.abinit.org/theory/bibliography/#gonze2020
-
- [2] First-principles responses of solids to atomic displacements and homogeneous electric fields:,
- implementation of a conjugate-gradient algorithm. X. Gonze, Phys. Rev. B55, 10337 (1997).
- Comment: Non-vanishing rfphon and/or rfelfd, in the norm-conserving case.
- DOI and bibtex: see https://docs.abinit.org/theory/bibliography/#gonze1997
-
- [3] Dynamical matrices, Born effective charges, dielectric permittivity tensors, and ,
- interatomic force constants from density-functional perturbation theory,
- X. Gonze and C. Lee, Phys. Rev. B55, 10355 (1997).
- Comment: Non-vanishing rfphon and/or rfelfd, in the norm-conserving case.
- DOI and bibtex: see https://docs.abinit.org/theory/bibliography/#gonze1997a
-
- [4] Optimized norm-conserving Vanderbilt pseudopotentials.
- D.R. Hamann, Phys. Rev. B 88, 085117 (2013).
- Comment: Some pseudopotential generated using the ONCVPSP code were used.
- DOI and bibtex: see https://docs.abinit.org/theory/bibliography/#hamann2013
-
- [5] ABINIT: Overview, and focus on selected capabilities
- J. Chem. Phys. 152, 124102 (2020).
- A. Romero, D.C. Allan, B. Amadon, G. Antonius, T. Applencourt, L.Baguet,
- J.Bieder, F.Bottin, J.Bouchet, E.Bousquet, F.Bruneval,
- G.Brunin, D.Caliste, M.Cote,
- J.Denier, C. Dreyer, Ph.Ghosez, M.Giantomassi, Y.Gillet, O.Gingras,
- D.R.Hamann, G.Hautier, F.Jollet, G. Jomard,
- A.Martin, 
- H.P.C. Miranda, F.Naccarato, G.Petretto, N.A. Pike, V.Planes,
- S.Prokhorenko, T. Rangel, F.Ricci, G.-M.Rignanese, M.Royo, M.Stengel, M.Torrent,
- M.J.van Setten, B.Van Troeye, M.J.Verstraete, J.Wiktor, J.W.Zwanziger, and X.Gonze.
- Comment: a global overview of ABINIT, with focus on selected capabilities .
- Note that a version of this paper, that is not formatted for J. Chem. Phys 
- is available at https://www.abinit.org/sites/default/files/ABINIT20_JPC.pdf .
- The licence allows the authors to put it on the Web.
- DOI and bibtex: see https://docs.abinit.org/theory/bibliography/#romero2020
-
- [6] Recent developments in the ABINIT software package.
- Computer Phys. Comm. 205, 106 (2016).
- X.Gonze, F.Jollet, F.Abreu Araujo, D.Adams, B.Amadon, T.Applencourt,
- C.Audouze, J.-M.Beuken, J.Bieder, A.Bokhanchuk, E.Bousquet, F.Bruneval
- D.Caliste, M.Cote, F.Dahm, F.Da Pieve, M.Delaveau, M.Di Gennaro,
- B.Dorado, C.Espejo, G.Geneste, L.Genovese, A.Gerossier, M.Giantomassi,
- Y.Gillet, D.R.Hamann, L.He, G.Jomard, J.Laflamme Janssen, S.Le Roux,
- A.Levitt, A.Lherbier, F.Liu, I.Lukacevic, A.Martin, C.Martins,
- M.J.T.Oliveira, S.Ponce, Y.Pouillon, T.Rangel, G.-M.Rignanese,
- A.H.Romero, B.Rousseau, O.Rubel, A.A.Shukri, M.Stankovski, M.Torrent,
- M.J.Van Setten, B.Van Troeye, M.J.Verstraete, D.Waroquier, J.Wiktor,
- B.Xu, A.Zhou, J.W.Zwanziger.
- Comment: the fourth generic paper describing the ABINIT project.
- Note that a version of this paper, that is not formatted for Computer Phys. Comm. 
- is available at https://www.abinit.org/sites/default/files/ABINIT16.pdf .
- The licence allows the authors to put it on the Web.
- DOI and bibtex: see https://docs.abinit.org/theory/bibliography/#gonze2016
-
- Proc.   0 individual time (sec): cpu=        593.1  wall=        601.7

================================================================================

 Calculation completed.
.Delivered  59 WARNINGs and  11 COMMENTs to log file.
+Overall time at end (sec) : cpu=        593.1  wall=        601.7
