
.Version 9.6.2 of ABINIT 
.(MPI version, prepared for a x86_64_linux_gnu11.2 computer) 

.Copyright (C) 1998-2021 ABINIT group . 
 ABINIT comes with ABSOLUTELY NO WARRANTY.
 It is free software, and you are welcome to redistribute it
 under certain conditions (GNU General Public License,
 see ~abinit/COPYING or http://www.gnu.org/copyleft/gpl.txt).

 ABINIT is a project of the Universite Catholique de Louvain,
 Corning Inc. and other collaborators, see ~abinit/doc/developers/contributors.txt .
 Please read https://docs.abinit.org/theory/acknowledgments for suggested
 acknowledgments of the ABINIT effort.
 For more information, see https://www.abinit.org .

.Starting date : Sat 19 Nov 2022.
- ( at 11h27 )
  
- input  file    -> band
- output file    -> band.abo
- root for input  files -> i
- root for output files -> o


 DATASET    1 : space group P-6 m 2 (#187); Bravais hP (primitive hexag.)
================================================================================
 Values of the parameters that define the memory need for DATASET  1.
     intxc =       0    ionmov =       0      iscf =       7    lmnmax =       6
     lnmax =       6     mgfft =     135  mpssoang =       3    mqgrid =    6638
     natom =       3  nloc_mem =       1    nspden =       1   nspinor =       1
    nsppol =       1      nsym =      12    n1xccc =    2501    ntypat =       2
    occopt =       1   xclevel =       2
-    mband =          14        mffmem =           1         mkmem =         508
       mpw =        4503          nfft =       98415          nkpt =         508
================================================================================
P This job should need less than                     549.487 Mbytes of memory.
  Rough estimation (10% accuracy) of disk space for files :
_ WF disk file :    488.670 Mbytes ; DEN or POT disk file :      0.753 Mbytes.
================================================================================


 DATASET    2 : space group P-6 m 2 (#187); Bravais hP (primitive hexag.)
================================================================================
 Values of the parameters that define the memory need for DATASET  2.
     intxc =       0    ionmov =       0      iscf =      -2    lmnmax =       6
     lnmax =       6     mgfft =     135  mpssoang =       3    mqgrid =    6638
     natom =       3  nloc_mem =       1    nspden =       1   nspinor =       1
    nsppol =       1      nsym =      12    n1xccc =    2501    ntypat =       2
    occopt =       1   xclevel =       2
-    mband =          14        mffmem =           1         mkmem =          38
       mpw =        4483          nfft =       98415          nkpt =          38
================================================================================
P This job should need less than                      59.808 Mbytes of memory.
  Rough estimation (10% accuracy) of disk space for files :
_ WF disk file :     36.394 Mbytes ; DEN or POT disk file :      0.753 Mbytes.
================================================================================

--------------------------------------------------------------------------------
------------- Echo of variables that govern the present computation ------------
--------------------------------------------------------------------------------
-
- outvars: echo of selected default values                                      
-   iomode0 =  0 , fftalg0 =112 , wfoptalg0 =  0
-
- outvars: echo of global parameters not present in the input file              
-  max_nthreads =    0
-
 -outvars: echo values of preprocessed input variables --------
            acell      6.0300000000E+00  6.0300000000E+00  3.2970000000E+01 Bohr
              amu      9.59400000E+01  3.20660000E+01
      chksymbreak           0
           diemac      1.20000000E+01
             ecut      2.00000000E+01 Hartree
           enunit1          0
           enunit2          1
-          fftalg         112
           getden1          0
           getden2         -1
             iscf1          7
             iscf2         -2
           istwfk2       3    0    0    0    0    0    0    0    0    0
                         2    0    0    0    0    0    0    0    0    0
                         8    0    0    0    0    0    0    0    0    0
                         0    0    0    0    0    0    0    0
                       outvar_i_n : Printing only first  50 k-points.
              ixc          11
           jdtset        1    2
              kpt1    -8.33333333E-02  0.00000000E+00  0.00000000E+00
                      -2.50000000E-01  0.00000000E+00  0.00000000E+00
                      -1.66666667E-01  0.00000000E+00  1.56250000E-02
                      -8.33333333E-02  0.00000000E+00  3.12500000E-02
                      -1.66666667E-01  8.33333333E-02  0.00000000E+00
                      -8.33333333E-02  8.33333333E-02  1.56250000E-02
                      -4.16666667E-01  0.00000000E+00  0.00000000E+00
                      -3.33333333E-01  0.00000000E+00  1.56250000E-02
                      -2.50000000E-01  0.00000000E+00  3.12500000E-02
                      -1.66666667E-01  0.00000000E+00  4.68750000E-02
                      -8.33333333E-02  0.00000000E+00  6.25000000E-02
                      -3.33333333E-01  8.33333333E-02  0.00000000E+00
                      -2.50000000E-01  8.33333333E-02  1.56250000E-02
                      -1.66666667E-01  8.33333333E-02  3.12500000E-02
                      -8.33333333E-02  8.33333333E-02  4.68750000E-02
                      -2.50000000E-01  1.66666667E-01  0.00000000E+00
                      -1.66666667E-01  1.66666667E-01  1.56250000E-02
                       5.00000000E-01  0.00000000E+00  1.56250000E-02
                      -4.16666667E-01  0.00000000E+00  3.12500000E-02
                      -3.33333333E-01  0.00000000E+00  4.68750000E-02
                      -2.50000000E-01  0.00000000E+00  6.25000000E-02
                      -1.66666667E-01  0.00000000E+00  7.81250000E-02
                      -8.33333333E-02  0.00000000E+00  9.37500000E-02
                       5.00000000E-01  8.33333333E-02  0.00000000E+00
                      -4.16666667E-01  8.33333333E-02  1.56250000E-02
                      -3.33333333E-01  8.33333333E-02  3.12500000E-02
                      -2.50000000E-01  8.33333333E-02  4.68750000E-02
                      -1.66666667E-01  8.33333333E-02  6.25000000E-02
                      -8.33333333E-02  8.33333333E-02  7.81250000E-02
                      -4.16666667E-01  1.66666667E-01  0.00000000E+00
                      -3.33333333E-01  1.66666667E-01  1.56250000E-02
                      -2.50000000E-01  1.66666667E-01  3.12500000E-02
                      -1.66666667E-01  1.66666667E-01  4.68750000E-02
                      -3.33333333E-01  2.50000000E-01  0.00000000E+00
                      -2.50000000E-01  2.50000000E-01  1.56250000E-02
                       5.00000000E-01  0.00000000E+00  4.68750000E-02
                      -4.16666667E-01  0.00000000E+00  6.25000000E-02
                      -3.33333333E-01  0.00000000E+00  7.81250000E-02
                      -2.50000000E-01  0.00000000E+00  9.37500000E-02
                      -1.66666667E-01  0.00000000E+00  1.09375000E-01
                      -8.33333333E-02  0.00000000E+00  1.25000000E-01
                       3.33333333E-01  8.33333333E-02  0.00000000E+00
                       4.16666667E-01  8.33333333E-02  1.56250000E-02
                       5.00000000E-01  8.33333333E-02  3.12500000E-02
                      -4.16666667E-01  8.33333333E-02  4.68750000E-02
                      -3.33333333E-01  8.33333333E-02  6.25000000E-02
                      -2.50000000E-01  8.33333333E-02  7.81250000E-02
                      -1.66666667E-01  8.33333333E-02  9.37500000E-02
                      -8.33333333E-02  8.33333333E-02  1.09375000E-01
                      -4.16666667E-01  1.66666667E-01  3.12500000E-02
              kpt2     5.00000000E-01  0.00000000E+00  0.00000000E+00
                       4.50000000E-01  0.00000000E+00  0.00000000E+00
                       4.00000000E-01  0.00000000E+00  0.00000000E+00
                       3.50000000E-01  0.00000000E+00  0.00000000E+00
                       3.00000000E-01  0.00000000E+00  0.00000000E+00
                       2.50000000E-01  0.00000000E+00  0.00000000E+00
                       2.00000000E-01  0.00000000E+00  0.00000000E+00
                       1.50000000E-01  0.00000000E+00  0.00000000E+00
                       1.00000000E-01  0.00000000E+00  0.00000000E+00
                       5.00000000E-02  0.00000000E+00  0.00000000E+00
                       0.00000000E+00  0.00000000E+00  0.00000000E+00
                       0.00000000E+00  5.00000000E-02  5.00000000E-02
                       0.00000000E+00  1.00000000E-01  1.00000000E-01
                       0.00000000E+00  1.50000000E-01  1.50000000E-01
                       0.00000000E+00  2.00000000E-01  2.00000000E-01
                       0.00000000E+00  2.50000000E-01  2.50000000E-01
                       0.00000000E+00  3.00000000E-01  3.00000000E-01
                       0.00000000E+00  3.50000000E-01  3.50000000E-01
                       0.00000000E+00  4.00000000E-01  4.00000000E-01
                       0.00000000E+00  4.50000000E-01  4.50000000E-01
                       0.00000000E+00  5.00000000E-01  5.00000000E-01
                       5.88235294E-02  5.29411765E-01  5.29411765E-01
                       1.17647059E-01  5.58823529E-01  5.58823529E-01
                       1.76470588E-01  5.88235294E-01  5.88235294E-01
                       2.35294118E-01  6.17647059E-01  6.17647059E-01
                       2.94117647E-01  6.47058824E-01  6.47058824E-01
                       3.52941176E-01  6.76470588E-01  6.76470588E-01
                       4.11764706E-01  7.05882353E-01  7.05882353E-01
                       4.70588235E-01  7.35294118E-01  7.35294118E-01
                       5.29411765E-01  7.64705882E-01  7.64705882E-01
                       5.88235294E-01  7.94117647E-01  7.94117647E-01
                       6.47058824E-01  8.23529412E-01  8.23529412E-01
                       7.05882353E-01  8.52941176E-01  8.52941176E-01
                       7.64705882E-01  8.82352941E-01  8.82352941E-01
                       8.23529412E-01  9.11764706E-01  9.11764706E-01
                       8.82352941E-01  9.41176471E-01  9.41176471E-01
                       9.41176471E-01  9.70588235E-01  9.70588235E-01
                       1.00000000E+00  1.00000000E+00  1.00000000E+00
                       outvar_i_n : Printing only first  50 k-points.
           kptopt1          1
           kptopt2         -3
         kptrlatt       12    0    0      0   12    0     -6    6   32
          kptrlen1     7.23600000E+01
          kptrlen2     3.00000000E+01
P           mkmem1        508
P           mkmem2         38
            natom           3
            nband1         14
            nband2         14
           nbdbuf1          0
           nbdbuf2          2
           ndtset           2
           ndivsm1          0
           ndivsm2         10
            ngfft          27      27     135
             nkpt1        508
             nkpt2         38
            nstep          20
             nsym          12
           ntypat           2
              occ      2.000000  2.000000  2.000000  2.000000  2.000000  2.000000
                       2.000000  2.000000  2.000000  2.000000  2.000000  2.000000
                       2.000000  0.000000
            rprim      8.6602540378E-01 -5.0000000000E-01  0.0000000000E+00
                       8.6602540378E-01  5.0000000000E-01  0.0000000000E+00
                       0.0000000000E+00  0.0000000000E+00  1.0000000000E+00
           shiftk1     0.00000000E+00  0.00000000E+00  5.00000000E-01
           shiftk2     5.00000000E-01  5.00000000E-01  5.00000000E-01
          spgroup         187
           symrel      1  0  0   0  1  0   0  0  1       1 -1  0   0 -1  0   0  0 -1
                       0 -1  0   1 -1  0   0  0 -1      -1  0  0  -1  1  0   0  0  1
                      -1  1  0  -1  0  0   0  0  1       0  1  0   1  0  0   0  0 -1
                       1  0  0   0  1  0   0  0 -1       1 -1  0   0 -1  0   0  0  1
                       0 -1  0   1 -1  0   0  0  1      -1  0  0  -1  1  0   0  0 -1
                      -1  1  0  -1  0  0   0  0 -1       0  1  0   1  0  0   0  0  1
           toldfe1     1.00000000E-04 Hartree
           toldfe2     0.00000000E+00 Hartree
           tolwfr1     0.00000000E+00
           tolwfr2     1.00000000E-12
            typat      1  2  2
              wtk1       0.00087    0.00087    0.00260    0.00174    0.00174    0.00087
                         0.00087    0.00260    0.00174    0.00260    0.00174    0.00174
                         0.00174    0.00347    0.00087    0.00174    0.00260    0.00130
                         0.00174    0.00260    0.00174    0.00260    0.00174    0.00174
                         0.00174    0.00347    0.00174    0.00347    0.00087    0.00087
                         0.00521    0.00347    0.00260    0.00174    0.00087    0.00130
                         0.00174    0.00260    0.00174    0.00260    0.00174    0.00174
                         0.00174    0.00347    0.00174    0.00347    0.00174    0.00347
                         0.00087    0.00174
              wtk2       1.00000    1.00000    1.00000    1.00000    1.00000    1.00000
                         1.00000    1.00000    1.00000    1.00000    1.00000    1.00000
                         1.00000    1.00000    1.00000    1.00000    1.00000    1.00000
                         1.00000    1.00000    1.00000    1.00000    1.00000    1.00000
                         1.00000    1.00000    1.00000    1.00000    1.00000    1.00000
                         1.00000    1.00000    1.00000    1.00000    1.00000    1.00000
                         1.00000    1.00000
                       outvars : Printing only first  50 k-points.
           xangst      0.0000000000E+00  0.0000000000E+00  0.0000000000E+00
                       1.8422892411E+00  0.0000000000E+00 -1.7098033116E+00
                       1.8422892411E+00  0.0000000000E+00  1.7098033116E+00
            xcart      0.0000000000E+00  0.0000000000E+00  0.0000000000E+00
                       3.4814221232E+00  0.0000000000E+00 -3.2310600000E+00
                       3.4814221232E+00  0.0000000000E+00  3.2310600000E+00
             xred      0.0000000000E+00  0.0000000000E+00  0.0000000000E+00
                       3.3333333333E-01  3.3333333333E-01 -9.8000000000E-02
                       3.3333333333E-01  3.3333333333E-01  9.8000000000E-02
            znucl       42.00000   16.00000

================================================================================

 chkinp: Checking input parameters for consistency, jdtset=   1.

 chkinp: Checking input parameters for consistency, jdtset=   2.

================================================================================
== DATASET  1 ==================================================================
-   mpi_nproc: 1, omp_nthreads: -1 (-1 if OMP is not activated)


--- !DatasetInfo
iteration_state: {dtset: 1, }
dimensions: {natom: 3, nkpt: 508, mband: 14, nsppol: 1, nspinor: 1, nspden: 1, mpw: 4503, }
cutoff_energies: {ecut:  20.0, pawecutdg:  -1.0, }
electrons: {nelect:   2.60000000E+01, charge:   0.00000000E+00, occopt:   1.00000000E+00, tsmear:   1.00000000E-02, }
meta: {optdriver: 0, ionmov: 0, optcell: 0, iscf: 7, paral_kgb: 0, }
...

 Exchange-correlation functional for the present dataset will be:
  GGA: Perdew-Burke-Ernzerhof functional - ixc=11
 Citation for XC functional:
  J.P.Perdew, K.Burke, M.Ernzerhof, PRL 77, 3865 (1996)

 Real(R)+Recip(G) space primitive vectors, cartesian coordinates (Bohr,Bohr^-1):
 R(1)=  5.2221332 -3.0150000  0.0000000  G(1)=  0.0957463 -0.1658375  0.0000000
 R(2)=  5.2221332  3.0150000  0.0000000  G(2)=  0.0957463  0.1658375  0.0000000
 R(3)=  0.0000000  0.0000000 32.9700000  G(3)=  0.0000000  0.0000000  0.0303306
 Unit cell volume ucvol=  1.0382076E+03 bohr^3
 Angles (23,13,12)=  9.00000000E+01  9.00000000E+01  6.00000000E+01 degrees

 getcut: wavevector=  0.0000  0.0000  0.0000  ngfft=  27  27 135
         ecut(hartree)=     20.000   => boxcut(ratio)=   2.01886

--- Pseudopotential description ------------------------------------------------
- pspini: atom type   1  psp file is Mo.psp8
- pspatm: opening atomic psp file    Mo.psp8
- Mo    ONCVPSP-3.2.3.1  r_core=   1.45541   1.45541   1.35488
- 42.00000  14.00000    170510                znucl, zion, pspdat
    8   11    2    4       600   0.00000      pspcod,pspxc,lmax,lloc,mmax,r2well
    5.99000000000000    3.00000000000000    0.00000000000000   rchrg,fchrg,qchrg
     nproj     2     2     2
     extension_switch     1
  pspatm : epsatm=   15.95693586
         --- l  ekb(1:nproj) -->
             0   13.833287    1.350687
             1    8.015347    1.134034
             2    2.765699    0.969071
 pspatm: atomic psp has been read  and splines computed

- pspini: atom type   2  psp file is S.psp8
- pspatm: opening atomic psp file    S.psp8
- S     ONCVPSP-3.2.3.1  r_core=   1.45376   1.45376   1.61851
- 16.00000   6.00000    170504                znucl, zion, pspdat
    8   11    2    4       600   0.00000      pspcod,pspxc,lmax,lloc,mmax,r2well
    5.99000000000000    6.00000000000000    0.00000000000000   rchrg,fchrg,qchrg
     nproj     2     2     2
     extension_switch     1
  pspatm : epsatm=    9.01821879
         --- l  ekb(1:nproj) -->
             0    6.763951    0.574108
             1    3.227080    0.887329
             2   -3.547662   -0.986524
 pspatm: atomic psp has been read  and splines computed

   8.83827710E+02                                ecore*ucvol(ha*bohr**3)
--------------------------------------------------------------------------------

_setup2: Arith. and geom. avg. npw (full set) are    4435.259    4435.198

================================================================================

--- !BeginCycle
iteration_state: {dtset: 1, }
solver: {iscf: 7, nstep: 20, nline: 4, wfoptalg: 0, }
tolerances: {toldfe: 1.00E-04, }
...

     iter   Etot(hartree)      deltaE(h)  residm     vres2
 ETOT  1  -91.709963691961    -9.171E+01 6.278E-02 3.554E+03
 ETOT  2  -87.094070655933     4.616E+00 5.255E-02 4.690E+04
 ETOT  3  -92.289349357960    -5.195E+00 1.008E-01 6.405E+02
 ETOT  4  -92.334239206905    -4.489E-02 2.271E-02 4.429E+02
 ETOT  5  -92.342523285781    -8.284E-03 3.937E-03 3.370E+02
 ETOT  6  -92.345260947375    -2.738E-03 4.748E-03 2.894E+02
 ETOT  7  -92.346666120627    -1.405E-03 2.461E-03 2.680E+02
 ETOT  8  -92.348146572818    -1.480E-03 3.054E-03 2.396E+02
 ETOT  9  -92.355695300899    -7.549E-03 2.046E-03 1.020E+02
 ETOT 10  -92.359193458754    -3.498E-03 2.037E-03 3.569E+01
 ETOT 11  -92.358940128179     2.533E-04 1.078E-03 1.963E+01
 ETOT 12  -92.357895352288     1.045E-03 8.988E-04 4.753E+01
 ETOT 13  -92.359284879420    -1.390E-03 4.196E-04 8.899E+00
 ETOT 14  -92.359571381324    -2.865E-04 4.870E-04 5.719E+00
 ETOT 15  -92.359529475163     4.191E-05 3.000E-04 8.616E+00
 ETOT 16  -92.359661548052    -1.321E-04 3.387E-04 4.181E+00
 ETOT 17  -92.359660324383     1.224E-06 2.051E-04 2.926E+00
 ETOT 18  -92.359679940766    -1.962E-05 2.284E-04 1.096E+00

 At SCF step   18, etot is converged : 
  for the second time, diff in etot=  1.962E-05 < toldfe=  1.000E-04

 Cartesian components of stress tensor (hartree/bohr^3)
  sigma(1 1)=  3.49922357E-04  sigma(3 2)=  0.00000000E+00
  sigma(2 2)=  3.49922357E-04  sigma(3 1)=  0.00000000E+00
  sigma(3 3)=  5.35006207E-04  sigma(2 1)=  0.00000000E+00


--- !ResultsGS
iteration_state: {dtset: 1, }
comment   : Summary of ground state results
lattice_vectors:
- [  5.2221332,  -3.0150000,   0.0000000, ]
- [  5.2221332,   3.0150000,   0.0000000, ]
- [  0.0000000,   0.0000000,  32.9700000, ]
lattice_lengths: [   6.03000,    6.03000,   32.97000, ]
lattice_angles: [ 90.000,  90.000,  60.000, ] # degrees, (23, 13, 12)
lattice_volume:   1.0382076E+03
convergence: {deltae: -1.962E-05, res2:  1.096E+00, residm:  2.284E-04, diffor: null, }
etotal    :  -9.23596799E+01
entropy   :   0.00000000E+00
fermie    :  -4.11410185E-02
cartesian_stress_tensor: # hartree/bohr^3
- [  3.49922357E-04,   0.00000000E+00,   0.00000000E+00, ]
- [  0.00000000E+00,   3.49922357E-04,   0.00000000E+00, ]
- [  0.00000000E+00,   0.00000000E+00,   5.35006207E-04, ]
pressure_GPa:  -1.2110E+01
xred      :
- [  0.0000E+00,   0.0000E+00,   0.0000E+00, Mo]
- [  3.3333E-01,   3.3333E-01,  -9.8000E-02,  S]
- [  3.3333E-01,   3.3333E-01,   9.8000E-02,  S]
cartesian_forces: # hartree/bohr
- [ -0.00000000E+00,  -9.52621859E-28,  -0.00000000E+00, ]
- [ -4.12497365E-28,   1.19077732E-27,   4.32516827E-02, ]
- [  4.12497365E-28,  -2.38155465E-28,  -4.32516827E-02, ]
force_length_stats: {min:   9.52621859E-28, max:   4.32516827E-02, mean:   2.88344551E-02, }
...

 Integrated electronic density in atomic spheres:
 ------------------------------------------------
 Atom  Sphere_radius  Integrated_density
    1        2.00000         10.44896343
    2        2.00000          3.85532276
    3        2.00000          3.85532276
================================================================================

 ----iterations are completed or convergence reached----

 Mean square residual over all n,k,spin=   53.425E-08; max=  22.840E-05
 reduced coordinates (array xred) for    3 atoms
       0.000000000000      0.000000000000      0.000000000000
       0.333333333333      0.333333333333     -0.098000000000
       0.333333333333      0.333333333333      0.098000000000
 rms dE/dt=  6.7223E-01; max dE/dt=  1.4260E+00; dE/dt below (all hartree)
    1       0.000000000000      0.000000000000      0.000000000000
    2       0.000000000000     -0.000000000000     -1.426007977502
    3       0.000000000000     -0.000000000000      1.426007977502

 cartesian coordinates (angstrom) at end:
    1      0.00000000000000     0.00000000000000     0.00000000000000
    2      1.84228924108556     0.00000000000000    -1.70980331158681
    3      1.84228924108556     0.00000000000000     1.70980331158681

 cartesian forces (hartree/bohr) at end:
    1     -0.00000000000000    -0.00000000000000    -0.00000000000000
    2     -0.00000000000000     0.00000000000000     0.04325168266611
    3      0.00000000000000    -0.00000000000000    -0.04325168266611
 frms,max,avg= 2.0389039E-02 4.3251683E-02   0.000E+00  0.000E+00  0.000E+00 h/b

 cartesian forces (eV/Angstrom) at end:
    1     -0.00000000000000    -0.00000000000000    -0.00000000000000
    2     -0.00000000000000     0.00000000000000     2.22409075922659
    3      0.00000000000000    -0.00000000000000    -2.22409075922659
 frms,max,avg= 1.0484464E+00 2.2240908E+00   0.000E+00  0.000E+00  0.000E+00 e/A
 length scales=  6.030000000000  6.030000000000 32.970000000000 bohr
              =  3.190938567798  3.190938567798 17.446972567212 angstroms
 prteigrs : about to open file o_DS1_EIG
 Fermi (or HOMO) energy (hartree) =  -0.04114   Average Vxc (hartree)=  -0.16797
 Eigenvalues (hartree) for nkpt= 508  k points:
 kpt#   1, nband= 14, wtk=  0.00087, kpt= -0.0833  0.0000  0.0000 (reduced coord)
  -2.28132   -1.33039   -1.32279   -1.32197   -0.54110   -0.51052   -0.23037   -0.12661
  -0.12141   -0.10874   -0.08346   -0.07755   -0.06080    0.04051
 prteigrs : prtvol=0 or 1, do not print more k-points.


--- !EnergyTerms
iteration_state     : {dtset: 1, }
comment             : Components of total free energy in Hartree
kinetic             :  2.95313992961206E+01
hartree             :  2.17260731456612E+02
xc                  : -1.65512970111309E+01
Ewald energy        :  1.40344379166645E+02
psp_core            :  8.51301522853731E-01
local_psp           : -4.75439357866761E+02
non_local_psp       :  1.16431634948951E+01
total_energy        : -9.23596799407659E+01
total_energy_eV     : -2.51323470405492E+03
band_energy         : -1.64479682420216E+01
...


 Cartesian components of stress tensor (hartree/bohr^3)
  sigma(1 1)=  3.49922357E-04  sigma(3 2)=  0.00000000E+00
  sigma(2 2)=  3.49922357E-04  sigma(3 1)=  0.00000000E+00
  sigma(3 3)=  5.35006207E-04  sigma(2 1)=  0.00000000E+00

-Cartesian components of stress tensor (GPa)         [Pressure= -1.2110E+01 GPa]
- sigma(1 1)=  1.02950694E+01  sigma(3 2)=  0.00000000E+00
- sigma(2 2)=  1.02950694E+01  sigma(3 1)=  0.00000000E+00
- sigma(3 3)=  1.57404234E+01  sigma(2 1)=  0.00000000E+00

================================================================================
== DATASET  2 ==================================================================
-   mpi_nproc: 1, omp_nthreads: -1 (-1 if OMP is not activated)


--- !DatasetInfo
iteration_state: {dtset: 2, }
dimensions: {natom: 3, nkpt: 38, mband: 14, nsppol: 1, nspinor: 1, nspden: 1, mpw: 4483, }
cutoff_energies: {ecut:  20.0, pawecutdg:  -1.0, }
electrons: {nelect:   2.60000000E+01, charge:   0.00000000E+00, occopt:   1.00000000E+00, tsmear:   1.00000000E-02, }
meta: {optdriver: 0, ionmov: 0, optcell: 0, iscf: -2, paral_kgb: 0, }
...

 mkfilename : getden/=0, take file _DEN from output of DATASET   1.

 Exchange-correlation functional for the present dataset will be:
  GGA: Perdew-Burke-Ernzerhof functional - ixc=11
 Citation for XC functional:
  J.P.Perdew, K.Burke, M.Ernzerhof, PRL 77, 3865 (1996)

 Real(R)+Recip(G) space primitive vectors, cartesian coordinates (Bohr,Bohr^-1):
 R(1)=  5.2221332 -3.0150000  0.0000000  G(1)=  0.0957463 -0.1658375  0.0000000
 R(2)=  5.2221332  3.0150000  0.0000000  G(2)=  0.0957463  0.1658375  0.0000000
 R(3)=  0.0000000  0.0000000 32.9700000  G(3)=  0.0000000  0.0000000  0.0303306
 Unit cell volume ucvol=  1.0382076E+03 bohr^3
 Angles (23,13,12)=  9.00000000E+01  9.00000000E+01  6.00000000E+01 degrees

 getcut: wavevector=  0.0000  0.0000  0.0000  ngfft=  27  27 135
         ecut(hartree)=     20.000   => boxcut(ratio)=   2.01886
--------------------------------------------------------------------------------


================================================================================
 prteigrs : about to open file o_DS2_EIG
 Non-SCF case, kpt    1 (  0.50000  0.00000  0.00000), residuals and eigenvalues=
  9.69E-13  5.41E-13  5.74E-13  2.44E-13  8.14E-13  4.78E-13  5.85E-13  6.22E-13
  8.50E-13  8.62E-13  7.91E-13  3.98E-13  2.61E-12  1.43E-04
 -2.2792E+00 -1.3332E+00 -1.3268E+00 -1.3232E+00 -4.7382E-01 -4.7224E-01
 -2.3700E-01 -2.0903E-01 -1.7604E-01 -1.3346E-01 -1.1828E-01 -6.4704E-02
 -6.1426E-02  4.4469E-02
  prteigrs : nnsclo,ikpt=   20    1 max resid (incl. the buffer)=  1.42814E-04
 Non-SCF case, kpt    2 (  0.45000  0.00000  0.00000), residuals and eigenvalues=
  6.82E-13  3.60E-13  4.73E-13  4.18E-13  2.83E-13  7.73E-13  8.77E-13  9.61E-13
  6.26E-13  7.60E-13  7.43E-13  5.15E-13  8.05E-13  9.18E-05
 -2.2795E+00 -1.3330E+00 -1.3268E+00 -1.3233E+00 -4.7605E-01 -4.7336E-01
 -2.3404E-01 -2.0646E-01 -1.7549E-01 -1.3242E-01 -1.1750E-01 -6.6815E-02
 -6.2122E-02  4.7951E-02
  prteigrs : nnsclo,ikpt=   20    2 max resid (incl. the buffer)=  9.17539E-05
 Non-SCF case, kpt    3 (  0.40000  0.00000  0.00000), residuals and eigenvalues=
  4.52E-13  2.75E-13  2.79E-13  3.70E-13  8.15E-13  3.17E-13  4.47E-13  6.04E-13
  6.09E-13  6.91E-13  9.08E-13  9.81E-13  4.09E-12  1.99E-05
 -2.2795E+00 -1.3321E+00 -1.3269E+00 -1.3231E+00 -4.8222E-01 -4.7653E-01
 -2.2585E-01 -1.9911E-01 -1.7425E-01 -1.2931E-01 -1.1508E-01 -7.1662E-02
 -6.4379E-02  4.0685E-02
  prteigrs : nnsclo,ikpt=   20    3 max resid (incl. the buffer)=  1.98761E-05
 Non-SCF case, kpt    4 (  0.35000  0.00000  0.00000), residuals and eigenvalues=
  6.43E-13  5.56E-13  1.96E-13  1.76E-13  6.83E-13  3.98E-13  7.94E-13  8.28E-13
  7.54E-13  7.81E-13  5.65E-13  7.64E-13  6.90E-13  9.78E-07
 -2.2796E+00 -1.3306E+00 -1.3271E+00 -1.3229E+00 -4.9113E-01 -4.8120E-01
 -2.1455E-01 -1.8800E-01 -1.7335E-01 -1.2427E-01 -1.1076E-01 -7.5805E-02
 -6.8545E-02  3.2733E-02
  prteigrs : nnsclo,ikpt=   20    4 max resid (incl. the buffer)=  9.77677E-07
 Non-SCF case, kpt    5 (  0.30000  0.00000  0.00000), residuals and eigenvalues=
  5.56E-13  1.60E-13  1.68E-13  3.32E-13  2.46E-13  7.61E-13  6.95E-13  9.64E-13
  9.17E-13  6.30E-13  8.80E-13  4.84E-13  4.74E-13  1.36E-05
 -2.2796E+00 -1.3288E+00 -1.3275E+00 -1.3224E+00 -5.0138E-01 -4.8670E-01
 -2.0453E-01 -1.7465E-01 -1.7193E-01 -1.1748E-01 -1.0431E-01 -7.5872E-02
 -7.4730E-02  2.5515E-02
  prteigrs : nnsclo,ikpt=   20    5 max resid (incl. the buffer)=  1.36467E-05
 Non-SCF case, kpt    6 (  0.25000  0.00000  0.00000), residuals and eigenvalues=
  8.90E-13  2.98E-13  1.61E-13  5.34E-13  9.98E-13  7.37E-13  7.23E-13  5.83E-13
  7.81E-13  4.99E-13  4.73E-13  5.43E-13  1.41E-12  3.74E-06
 -2.2798E+00 -1.3278E+00 -1.3269E+00 -1.3220E+00 -5.1178E-01 -4.9237E-01
 -2.0297E-01 -1.6439E-01 -1.6069E-01 -1.0929E-01 -9.5844E-02 -8.2443E-02
 -7.1420E-02  2.1253E-02
  prteigrs : nnsclo,ikpt=   20    6 max resid (incl. the buffer)=  3.74052E-06
 Non-SCF case, kpt    7 (  0.20000  0.00000  0.00000), residuals and eigenvalues=
  6.08E-13  7.94E-13  1.89E-13  1.43E-13  3.85E-13  5.37E-13  4.71E-13  6.91E-13
  4.68E-13  5.99E-13  4.69E-13  6.08E-13  6.64E-11  2.06E-05
 -2.2796E+00 -1.3281E+00 -1.3248E+00 -1.3213E+00 -5.2136E-01 -4.9765E-01
 -2.0933E-01 -1.5056E-01 -1.4746E-01 -1.0016E-01 -9.0633E-02 -8.6499E-02
 -6.5224E-02  2.2390E-02
  prteigrs : nnsclo,ikpt=   20    7 max resid (incl. the buffer)=  2.06108E-05
 Non-SCF case, kpt    8 (  0.15000  0.00000  0.00000), residuals and eigenvalues=
  9.26E-13  2.06E-13  2.15E-13  1.14E-13  4.11E-13  6.02E-13  6.07E-13  7.23E-13
  9.30E-13  3.24E-13  4.88E-13  5.74E-13  7.73E-12  2.77E-05
 -2.2800E+00 -1.3285E+00 -1.3232E+00 -1.3209E+00 -5.2946E-01 -5.0215E-01
 -2.1778E-01 -1.3572E-01 -1.3547E-01 -9.8274E-02 -9.0931E-02 -7.8666E-02
 -6.0590E-02  2.9487E-02
  prteigrs : nnsclo,ikpt=   20    8 max resid (incl. the buffer)=  2.76864E-05
 Non-SCF case, kpt    9 (  0.10000  0.00000  0.00000), residuals and eigenvalues=
  6.91E-13  5.45E-13  3.35E-13  3.84E-13  3.32E-13  8.74E-13  5.81E-13  5.67E-13
  4.33E-13  6.72E-13  2.84E-13  6.95E-13  5.58E-11  7.38E-05
 -2.2800E+00 -1.3287E+00 -1.3217E+00 -1.3205E+00 -5.3557E-01 -5.0556E-01
 -2.2511E-01 -1.2580E-01 -1.2215E-01 -1.0434E-01 -8.2633E-02 -7.4614E-02
 -5.8394E-02  4.2242E-02
  prteigrs : nnsclo,ikpt=   20    9 max resid (incl. the buffer)=  7.37956E-05
 Non-SCF case, kpt   10 (  0.05000  0.00000  0.00000), residuals and eigenvalues=
  9.78E-13  2.04E-13  5.40E-13  1.84E-13  6.87E-13  6.78E-13  9.38E-13  6.22E-13
  3.62E-13  9.10E-13  7.68E-13  9.72E-13  9.46E-13  1.78E-05
 -2.2799E+00 -1.3289E+00 -1.3206E+00 -1.3203E+00 -5.3937E-01 -5.0767E-01
 -2.2995E-01 -1.1859E-01 -1.1289E-01 -1.0819E-01 -7.6709E-02 -7.4099E-02
 -5.7762E-02  5.0864E-02
  prteigrs : nnsclo,ikpt=   20   10 max resid (incl. the buffer)=  1.78317E-05
 Non-SCF case, kpt   11 (  0.00000  0.00000  0.00000), residuals and eigenvalues=
  8.11E-13  6.83E-13  2.22E-13  5.53E-13  5.38E-13  5.89E-13  4.81E-13  5.89E-13
  6.67E-13  4.08E-13  3.93E-13  8.29E-13  5.98E-13  5.27E-07
 -2.2800E+00 -1.3290E+00 -1.3203E+00 -1.3203E+00 -5.4066E-01 -5.0839E-01
 -2.3164E-01 -1.1580E-01 -1.0954E-01 -1.0954E-01 -7.4539E-02 -7.4539E-02
 -5.7682E-02  5.4792E-02
  prteigrs : nnsclo,ikpt=   20   11 max resid (incl. the buffer)=  5.27064E-07
 Non-SCF case, kpt   12 (  0.00000  0.05000  0.05000), residuals and eigenvalues=
  9.37E-13  4.86E-13  5.00E-13  7.42E-13  7.01E-13  9.40E-13  7.16E-13  3.17E-13
  6.56E-13  9.93E-13  7.63E-13  8.90E-13  5.15E-13  3.91E-05
 -2.2799E+00 -1.3289E+00 -1.3206E+00 -1.3203E+00 -5.3937E-01 -5.0767E-01
 -2.2995E-01 -1.1859E-01 -1.1288E-01 -1.0819E-01 -7.6717E-02 -7.4104E-02
 -5.7758E-02  5.3331E-02
  prteigrs : nnsclo,ikpt=   20   12 max resid (incl. the buffer)=  3.91231E-05
 Non-SCF case, kpt   13 (  0.00000  0.10000  0.10000), residuals and eigenvalues=
  3.78E-13  1.58E-13  1.19E-13  7.42E-13  9.43E-13  4.83E-13  5.18E-13  4.09E-13
  9.85E-13  8.60E-13  9.09E-13  4.00E-13  2.52E-12  2.10E-04
 -2.2800E+00 -1.3288E+00 -1.3217E+00 -1.3206E+00 -5.3558E-01 -5.0556E-01
 -2.2511E-01 -1.2580E-01 -1.2216E-01 -1.0434E-01 -8.2647E-02 -7.4614E-02
 -5.8400E-02  4.2407E-02
  prteigrs : nnsclo,ikpt=   20   13 max resid (incl. the buffer)=  2.09580E-04
 Non-SCF case, kpt   14 (  0.00000  0.15000  0.15000), residuals and eigenvalues=
  7.70E-13  8.16E-13  5.63E-13  2.66E-13  3.18E-13  5.24E-13  8.65E-13  8.62E-13
  8.82E-13  8.95E-13  3.56E-13  7.17E-13  1.42E-11  7.26E-05
 -2.2800E+00 -1.3285E+00 -1.3232E+00 -1.3210E+00 -5.2947E-01 -5.0216E-01
 -2.1778E-01 -1.3571E-01 -1.3548E-01 -9.8270E-02 -9.0943E-02 -7.8668E-02
 -6.0589E-02  2.9438E-02
  prteigrs : nnsclo,ikpt=   20   14 max resid (incl. the buffer)=  7.25913E-05
 Non-SCF case, kpt   15 (  0.00000  0.20000  0.20000), residuals and eigenvalues=
  3.72E-13  6.27E-13  1.26E-13  3.76E-13  4.45E-13  7.69E-13  9.43E-13  7.00E-13
  8.19E-13  5.48E-13  6.46E-13  8.35E-13  2.80E-11  4.47E-07
 -2.2800E+00 -1.3282E+00 -1.3250E+00 -1.3214E+00 -5.2137E-01 -4.9766E-01
 -2.0936E-01 -1.5059E-01 -1.4748E-01 -1.0019E-01 -9.0663E-02 -8.6504E-02
 -6.5255E-02  2.2265E-02
  prteigrs : nnsclo,ikpt=   20   15 max resid (incl. the buffer)=  4.46960E-07
 Non-SCF case, kpt   16 (  0.00000  0.25000  0.25000), residuals and eigenvalues=
  6.72E-13  1.59E-13  7.18E-13  1.18E-13  7.53E-13  6.50E-13  4.50E-13  6.68E-13
  5.02E-13  5.62E-13  9.90E-13  7.18E-13  8.77E-13  2.34E-06
 -2.2797E+00 -1.3279E+00 -1.3268E+00 -1.3219E+00 -5.1177E-01 -4.9237E-01
 -2.0297E-01 -1.6438E-01 -1.6069E-01 -1.0928E-01 -9.5848E-02 -8.2441E-02
 -7.1432E-02  2.1231E-02
  prteigrs : nnsclo,ikpt=   20   16 max resid (incl. the buffer)=  2.33889E-06
 Non-SCF case, kpt   17 (  0.00000  0.30000  0.30000), residuals and eigenvalues=
  7.17E-13  1.22E-13  3.01E-13  2.60E-13  3.65E-13  6.98E-13  5.23E-13  5.12E-13
  9.27E-13  3.94E-13  7.82E-13  8.37E-13  8.99E-13  4.72E-05
 -2.2796E+00 -1.3287E+00 -1.3275E+00 -1.3224E+00 -5.0138E-01 -4.8670E-01
 -2.0453E-01 -1.7465E-01 -1.7193E-01 -1.1748E-01 -1.0431E-01 -7.5877E-02
 -7.4730E-02  2.5668E-02
  prteigrs : nnsclo,ikpt=   20   17 max resid (incl. the buffer)=  4.72013E-05
 Non-SCF case, kpt   18 (  0.00000  0.35000  0.35000), residuals and eigenvalues=
  8.05E-13  1.91E-13  2.91E-13  2.73E-13  5.84E-13  2.09E-13  8.03E-13  6.95E-13
  6.42E-13  5.11E-13  7.43E-13  3.99E-13  1.51E-12  8.76E-07
 -2.2796E+00 -1.3306E+00 -1.3272E+00 -1.3229E+00 -4.9113E-01 -4.8120E-01
 -2.1457E-01 -1.8800E-01 -1.7334E-01 -1.2427E-01 -1.1076E-01 -7.5812E-02
 -6.8543E-02  3.2732E-02
  prteigrs : nnsclo,ikpt=   20   18 max resid (incl. the buffer)=  8.76238E-07
 Non-SCF case, kpt   19 (  0.00000  0.40000  0.40000), residuals and eigenvalues=
  6.88E-13  2.41E-13  2.35E-13  1.75E-13  9.02E-13  8.83E-13  8.24E-13  5.57E-13
  4.82E-13  5.13E-13  5.21E-13  8.29E-13  6.38E-13  4.19E-06
 -2.2796E+00 -1.3321E+00 -1.3269E+00 -1.3231E+00 -4.8222E-01 -4.7653E-01
 -2.2585E-01 -1.9911E-01 -1.7424E-01 -1.2932E-01 -1.1507E-01 -7.1645E-02
 -6.4375E-02  4.1393E-02
  prteigrs : nnsclo,ikpt=   20   19 max resid (incl. the buffer)=  4.18895E-06
 Non-SCF case, kpt   20 (  0.00000  0.45000  0.45000), residuals and eigenvalues=
  8.93E-13  4.96E-13  3.50E-13  1.65E-13  7.68E-13  9.85E-13  7.51E-13  8.67E-13
  7.88E-13  6.87E-13  7.40E-13  6.60E-13  6.71E-13  8.96E-05
 -2.2795E+00 -1.3329E+00 -1.3268E+00 -1.3234E+00 -4.7605E-01 -4.7336E-01
 -2.3404E-01 -2.0646E-01 -1.7549E-01 -1.3243E-01 -1.1749E-01 -6.6810E-02
 -6.2127E-02  4.5813E-02
  prteigrs : nnsclo,ikpt=   20   20 max resid (incl. the buffer)=  8.96121E-05
 Non-SCF case, kpt   21 (  0.00000  0.50000  0.50000), residuals and eigenvalues=
  4.70E-13  1.38E-13  2.42E-13  9.32E-13  4.50E-13  4.73E-13  6.73E-13  7.28E-13
  6.31E-13  6.38E-13  5.38E-13  8.02E-13  6.81E-10  1.08E-04
 -2.2794E+00 -1.3333E+00 -1.3267E+00 -1.3233E+00 -4.7383E-01 -4.7224E-01
 -2.3701E-01 -2.0904E-01 -1.7606E-01 -1.3348E-01 -1.1827E-01 -6.4726E-02
 -6.1432E-02  5.1223E-02
  prteigrs : nnsclo,ikpt=   20   21 max resid (incl. the buffer)=  1.08186E-04
 Non-SCF case, kpt   22 (  0.05882  0.52941  0.52941), residuals and eigenvalues=
  8.30E-13  4.61E-13  3.10E-13  6.10E-13  6.77E-13  7.92E-13  5.99E-13  5.23E-13
  7.77E-13  7.80E-13  7.42E-13  6.35E-13  2.28E-11  1.45E-04
 -2.2794E+00 -1.3332E+00 -1.3267E+00 -1.3236E+00 -4.7323E-01 -4.7181E-01
 -2.3526E-01 -2.0919E-01 -1.7530E-01 -1.3626E-01 -1.1725E-01 -7.7883E-02
 -5.4461E-02  4.2968E-02
  prteigrs : nnsclo,ikpt=   20   22 max resid (incl. the buffer)=  1.44602E-04
 Non-SCF case, kpt   23 (  0.11765  0.55882  0.55882), residuals and eigenvalues=
  6.26E-13  3.73E-13  2.61E-13  6.28E-13  5.45E-13  5.44E-13  4.21E-13  7.86E-13
  8.48E-13  6.82E-13  7.74E-13  7.17E-13  1.86E-10  2.68E-05
 -2.2795E+00 -1.3328E+00 -1.3266E+00 -1.3245E+00 -4.7154E-01 -4.7062E-01
 -2.3011E-01 -2.0989E-01 -1.7329E-01 -1.4163E-01 -1.1639E-01 -9.8268E-02
 -5.0076E-02  3.9348E-02
  prteigrs : nnsclo,ikpt=   20   23 max resid (incl. the buffer)=  2.68416E-05
 Non-SCF case, kpt   24 (  0.17647  0.58824  0.58824), residuals and eigenvalues=
  7.78E-13  1.99E-13  2.30E-13  2.51E-13  6.09E-13  8.26E-13  5.22E-13  6.91E-13
  5.65E-13  5.05E-13  9.94E-13  5.17E-13  3.84E-11  2.26E-04
 -2.2795E+00 -1.3322E+00 -1.3265E+00 -1.3257E+00 -4.6912E-01 -4.6894E-01
 -2.2194E-01 -2.1161E-01 -1.7071E-01 -1.4574E-01 -1.2163E-01 -1.1758E-01
 -4.6818E-02  3.7553E-02
  prteigrs : nnsclo,ikpt=   20   24 max resid (incl. the buffer)=  2.26248E-04
 Non-SCF case, kpt   25 (  0.23529  0.61765  0.61765), residuals and eigenvalues=
  3.56E-13  4.59E-13  4.66E-13  5.21E-13  2.48E-13  5.50E-13  9.76E-13  8.24E-13
  4.09E-13  6.22E-13  9.20E-13  8.92E-13  2.90E-09  7.49E-04
 -2.2797E+00 -1.3314E+00 -1.3273E+00 -1.3265E+00 -4.6720E-01 -4.6656E-01
 -2.1432E-01 -2.1146E-01 -1.6903E-01 -1.4666E-01 -1.4400E-01 -1.2097E-01
 -4.3141E-02  3.7556E-02
  prteigrs : nnsclo,ikpt=   20   25 max resid (incl. the buffer)=  7.49317E-04
 Non-SCF case, kpt   26 (  0.29412  0.64706  0.64706), residuals and eigenvalues=
  7.11E-13  3.25E-13  1.55E-13  3.38E-13  7.91E-13  7.51E-13  5.53E-13  3.67E-13
  6.68E-13  7.10E-13  5.93E-13  8.40E-13  4.79E-09  1.41E-04
 -2.2797E+00 -1.3305E+00 -1.3286E+00 -1.3265E+00 -4.6594E-01 -4.6465E-01
 -2.1679E-01 -2.0050E-01 -1.7252E-01 -1.5768E-01 -1.4488E-01 -1.2522E-01
 -3.9590E-02  3.0948E-02
  prteigrs : nnsclo,ikpt=   20   26 max resid (incl. the buffer)=  1.40698E-04
 Non-SCF case, kpt   27 (  0.35294  0.67647  0.67647), residuals and eigenvalues=
  7.54E-13  2.07E-13  1.97E-13  1.34E-13  9.37E-13  9.04E-13  8.21E-13  6.83E-13
  3.86E-13  5.71E-13  4.12E-13  5.76E-13  5.16E-08  5.26E-04
 -2.2797E+00 -1.3302E+00 -1.3290E+00 -1.3265E+00 -4.6573E-01 -4.6433E-01
 -2.1723E-01 -1.9779E-01 -1.7488E-01 -1.5896E-01 -1.4430E-01 -1.2617E-01
 -3.8906E-02  3.3740E-02
  prteigrs : nnsclo,ikpt=   20   27 max resid (incl. the buffer)=  5.26159E-04
 Non-SCF case, kpt   28 (  0.41176  0.70588  0.70588), residuals and eigenvalues=
  5.97E-13  2.47E-13  2.93E-13  1.47E-13  4.84E-13  2.41E-13  5.43E-13  8.23E-13
  5.47E-13  8.88E-13  4.54E-13  8.06E-13  2.05E-08  4.73E-04
 -2.2797E+00 -1.3308E+00 -1.3279E+00 -1.3264E+00 -4.6701E-01 -4.6645E-01
 -2.1415E-01 -2.0521E-01 -1.6613E-01 -1.5517E-01 -1.4796E-01 -1.2050E-01
 -4.2895E-02  3.2798E-02
  prteigrs : nnsclo,ikpt=   20   28 max resid (incl. the buffer)=  4.73375E-04
 Non-SCF case, kpt   29 (  0.47059  0.73529  0.73529), residuals and eigenvalues=
  5.60E-13  4.37E-13  3.56E-13  9.99E-13  7.93E-13  9.39E-13  8.16E-13  6.75E-13
  6.77E-13  5.45E-13  7.29E-13  5.61E-13  1.18E-09  8.76E-06
 -2.2797E+00 -1.3311E+00 -1.3268E+00 -1.3266E+00 -4.7149E-01 -4.6992E-01
 -2.0971E-01 -2.0678E-01 -1.6287E-01 -1.5241E-01 -1.4295E-01 -1.1149E-01
 -4.9729E-02  3.0358E-02
  prteigrs : nnsclo,ikpt=   20   29 max resid (incl. the buffer)=  8.75656E-06
 Non-SCF case, kpt   30 (  0.52941  0.76471  0.76471), residuals and eigenvalues=
  7.00E-13  4.38E-13  3.00E-13  1.79E-13  9.69E-13  3.31E-13  6.39E-13  8.94E-13
  9.86E-13  9.29E-13  7.55E-13  8.38E-13  1.88E-09  1.82E-06
 -2.2796E+00 -1.3306E+00 -1.3268E+00 -1.3255E+00 -4.7928E-01 -4.7432E-01
 -2.0887E-01 -1.9516E-01 -1.6381E-01 -1.5508E-01 -1.2768E-01 -1.0168E-01
 -5.6320E-02  2.4943E-02
  prteigrs : nnsclo,ikpt=   20   30 max resid (incl. the buffer)=  1.81799E-06
 Non-SCF case, kpt   31 (  0.58824  0.79412  0.79412), residuals and eigenvalues=
  8.33E-13  3.23E-13  3.30E-13  2.20E-13  9.66E-13  3.97E-13  7.25E-13  5.70E-13
  7.76E-13  9.33E-13  7.66E-13  9.40E-13  1.11E-11  6.19E-07
 -2.2796E+00 -1.3296E+00 -1.3271E+00 -1.3244E+00 -4.8909E-01 -4.7977E-01
 -2.0382E-01 -1.8015E-01 -1.6695E-01 -1.5462E-01 -1.1298E-01 -9.2397E-02
 -6.1123E-02  1.7699E-02
  prteigrs : nnsclo,ikpt=   20   31 max resid (incl. the buffer)=  6.18844E-07
 Non-SCF case, kpt   32 (  0.64706  0.82353  0.82353), residuals and eigenvalues=
  6.83E-13  2.05E-13  2.56E-13  2.53E-13  6.11E-13  7.90E-13  9.91E-13  7.81E-13
  3.54E-13  8.33E-13  7.85E-13  6.14E-13  9.43E-11  2.12E-07
 -2.2796E+00 -1.3282E+00 -1.3275E+00 -1.3233E+00 -4.9991E-01 -4.8576E-01
 -1.9849E-01 -1.6928E-01 -1.6454E-01 -1.4891E-01 -1.0026E-01 -8.4533E-02
 -6.4710E-02  1.3555E-02
  prteigrs : nnsclo,ikpt=   20   32 max resid (incl. the buffer)=  2.12451E-07
 Non-SCF case, kpt   33 (  0.70588  0.85294  0.85294), residuals and eigenvalues=
  8.36E-13  4.17E-13  2.26E-13  1.54E-13  8.44E-13  5.33E-13  5.39E-13  6.70E-13
  9.07E-13  8.98E-13  8.07E-13  6.17E-13  1.11E-10  1.49E-06
 -2.2799E+00 -1.3279E+00 -1.3267E+00 -1.3225E+00 -5.1073E-01 -4.9174E-01
 -2.0018E-01 -1.6373E-01 -1.5349E-01 -1.3422E-01 -9.2229E-02 -7.8648E-02
 -6.6897E-02  1.4654E-02
  prteigrs : nnsclo,ikpt=   20   33 max resid (incl. the buffer)=  1.48996E-06
 Non-SCF case, kpt   34 (  0.76471  0.88235  0.88235), residuals and eigenvalues=
  5.90E-13  2.71E-13  1.50E-13  9.67E-13  9.82E-13  5.92E-13  3.81E-13  7.46E-13
  6.83E-13  5.47E-13  7.95E-13  6.24E-13  8.44E-11  3.02E-07
 -2.2801E+00 -1.3283E+00 -1.3250E+00 -1.3218E+00 -5.2067E-01 -4.9726E-01
 -2.0815E-01 -1.5088E-01 -1.4457E-01 -1.1525E-01 -9.2757E-02 -7.4939E-02
 -6.4598E-02  1.9961E-02
  prteigrs : nnsclo,ikpt=   20   34 max resid (incl. the buffer)=  3.01926E-07
 Non-SCF case, kpt   35 (  0.82353  0.91176  0.91176), residuals and eigenvalues=
  7.01E-13  1.39E-13  2.12E-13  6.70E-13  6.01E-13  9.04E-13  9.59E-13  4.58E-13
  7.82E-13  8.57E-13  6.12E-13  8.74E-13  1.98E-11  2.30E-05
 -2.2800E+00 -1.3285E+00 -1.3232E+00 -1.3211E+00 -5.2905E-01 -5.0192E-01
 -2.1721E-01 -1.3604E-01 -1.3520E-01 -9.8408E-02 -9.7692E-02 -7.3236E-02
 -6.0632E-02  2.8696E-02
  prteigrs : nnsclo,ikpt=   20   35 max resid (incl. the buffer)=  2.30197E-05
 Non-SCF case, kpt   36 (  0.88235  0.94118  0.94118), residuals and eigenvalues=
  8.55E-13  2.67E-13  1.44E-13  4.33E-13  4.59E-13  4.39E-13  5.98E-13  6.09E-13
  6.83E-13  6.64E-13  5.72E-13  7.09E-13  4.98E-11  1.41E-04
 -2.2800E+00 -1.3287E+00 -1.3218E+00 -1.3206E+00 -5.3539E-01 -5.0545E-01
 -2.2487E-01 -1.2597E-01 -1.2255E-01 -1.0422E-01 -8.4514E-02 -7.3165E-02
 -5.8417E-02  4.1578E-02
  prteigrs : nnsclo,ikpt=   20   36 max resid (incl. the buffer)=  1.41009E-04
 Non-SCF case, kpt   37 (  0.94118  0.97059  0.97059), residuals and eigenvalues=
  8.02E-13  3.21E-13  5.97E-13  6.11E-13  5.41E-13  7.94E-13  6.79E-13  8.13E-13
  6.09E-13  7.49E-13  3.54E-13  6.23E-13  4.20E-13  1.43E-05
 -2.2799E+00 -1.3289E+00 -1.3206E+00 -1.3203E+00 -5.3932E-01 -5.0765E-01
 -2.2989E-01 -1.1869E-01 -1.1297E-01 -1.0816E-01 -7.6916E-02 -7.3984E-02
 -5.7750E-02  5.1296E-02
  prteigrs : nnsclo,ikpt=   20   37 max resid (incl. the buffer)=  1.42653E-05
 Non-SCF case, kpt   38 (  1.00000  1.00000  1.00000), residuals and eigenvalues=
  8.64E-13  1.13E-13  1.36E-13  9.14E-13  5.70E-13  5.09E-13  6.95E-13  9.01E-13
  7.53E-13  8.49E-13  4.45E-13  4.20E-13  1.07E-12  2.03E-06
 -2.2800E+00 -1.3290E+00 -1.3203E+00 -1.3203E+00 -5.4066E-01 -5.0839E-01
 -2.3164E-01 -1.1580E-01 -1.0954E-01 -1.0954E-01 -7.4539E-02 -7.4539E-02
 -5.7682E-02  5.4832E-02
  prteigrs : nnsclo,ikpt=   20   38 max resid (incl. the buffer)=  2.02671E-06


--- !ResultsGS
iteration_state: {dtset: 2, }
comment   : Summary of ground state results
lattice_vectors:
- [  5.2221332,  -3.0150000,   0.0000000, ]
- [  5.2221332,   3.0150000,   0.0000000, ]
- [  0.0000000,   0.0000000,  32.9700000, ]
lattice_lengths: [   6.03000,    6.03000,   32.97000, ]
lattice_angles: [ 90.000,  90.000,  60.000, ] # degrees, (23, 13, 12)
lattice_volume:   1.0382076E+03
convergence: {deltae:  0.000E+00, res2:  0.000E+00, residm:  9.990E-13, diffor:  0.000E+00, }
etotal    :  -9.23596799E+01
entropy   :   0.00000000E+00
fermie    :  -4.11410185E-02
cartesian_stress_tensor: null
pressure_GPa: null
xred      :
- [  0.0000E+00,   0.0000E+00,   0.0000E+00, Mo]
- [  3.3333E-01,   3.3333E-01,  -9.8000E-02,  S]
- [  3.3333E-01,   3.3333E-01,   9.8000E-02,  S]
cartesian_forces: null
force_length_stats: {min: null, max: null, mean: null, }
...

 Integrated electronic density in atomic spheres:
 ------------------------------------------------
 Atom  Sphere_radius  Integrated_density
    1        2.00000         10.44896343
    2        2.00000          3.85532276
    3        2.00000          3.85532276
================================================================================

 ----iterations are completed or convergence reached----

 Mean square residual over all n,k,spin=   59.423E-14; max=  99.899E-14
 reduced coordinates (array xred) for    3 atoms
       0.000000000000      0.000000000000      0.000000000000
       0.333333333333      0.333333333333     -0.098000000000
       0.333333333333      0.333333333333      0.098000000000

 cartesian coordinates (angstrom) at end:
    1      0.00000000000000     0.00000000000000     0.00000000000000
    2      1.84228924108556     0.00000000000000    -1.70980331158681
    3      1.84228924108556     0.00000000000000     1.70980331158681
 length scales=  6.030000000000  6.030000000000 32.970000000000 bohr
              =  3.190938567798  3.190938567798 17.446972567212 angstroms
 prteigrs : about to open file o_DS2_EIG
 Eigenvalues (   eV  ) for nkpt=  38  k points:
 kpt#   1, nband= 14, wtk=  1.00000, kpt=  0.5000  0.0000  0.0000 (reduced coord)
 -62.02138  -36.27812  -36.10282  -36.00493  -12.89342  -12.85023   -6.44917   -5.68810
  -4.79028   -3.63151   -3.21851   -1.76069   -1.67149    1.21006
 kpt#   2, nband= 14, wtk=  1.00000, kpt=  0.4500  0.0000  0.0000 (reduced coord)
 -62.02738  -36.27149  -36.10475  -36.00849  -12.95407  -12.88086   -6.36859   -5.61812
  -4.77531   -3.60321   -3.19732   -1.81814   -1.69043    1.30482
 kpt#   3, nband= 14, wtk=  1.00000, kpt=  0.4000  0.0000  0.0000 (reduced coord)
 -62.02929  -36.24780  -36.10732  -36.00466  -13.12196  -12.96704   -6.14558   -5.41794
  -4.74164   -3.51867   -3.13146   -1.95003   -1.75183    1.10711
 kpt#   4, nband= 14, wtk=  1.00000, kpt=  0.3500  0.0000  0.0000 (reduced coord)
 -62.03034  -36.20805  -36.11337  -35.99666  -13.36428  -13.09414   -5.83826   -5.11562
  -4.71710   -3.38154   -3.01405   -2.06277   -1.86520    0.89072
 kpt#   5, nband= 14, wtk=  1.00000, kpt=  0.3000  0.0000  0.0000 (reduced coord)
 -62.03131  -36.15740  -36.12231  -35.98483  -13.64328  -13.24374   -5.56557   -4.75237
  -4.67845   -3.19672   -2.83847   -2.06457   -2.03349    0.69429
 kpt#   6, nband= 14, wtk=  1.00000, kpt=  0.2500  0.0000  0.0000 (reduced coord)
 -62.03682  -36.13165  -36.10724  -35.97247  -13.92620  -13.39796   -5.52311   -4.47322
  -4.37271   -2.97382   -2.60805   -2.24338   -1.94343    0.57832
 kpt#   7, nband= 14, wtk=  1.00000, kpt=  0.2000  0.0000  0.0000 (reduced coord)
 -62.03207  -36.13895  -36.05097  -35.95342  -14.18679  -13.54185   -5.69625   -4.09702
  -4.01252   -2.72552   -2.46626   -2.35376   -1.77483    0.60927
 kpt#   8, nband= 14, wtk=  1.00000, kpt=  0.1500  0.0000  0.0000 (reduced coord)
 -62.04077  -36.15087  -36.00539  -35.94361  -14.40745  -13.66433   -5.92608   -3.69300
  -3.68638   -2.67417   -2.47436   -2.14060   -1.64873    0.80238
 kpt#   9, nband= 14, wtk=  1.00000, kpt=  0.1000  0.0000  0.0000 (reduced coord)
 -62.04120  -36.15670  -35.96558  -35.93394  -14.57371  -13.75689   -6.12557   -3.42310
  -3.32387   -2.83925   -2.24857   -2.03035   -1.58897    1.14947
 kpt#  10, nband= 14, wtk=  1.00000, kpt=  0.0500  0.0000  0.0000 (reduced coord)
 -62.03952  -36.16071  -35.93614  -35.92840  -14.67692  -13.81445   -6.25725   -3.22695
  -3.07181   -2.94406   -2.08737   -2.01634   -1.57178    1.38407
 kpt#  11, nband= 14, wtk=  1.00000, kpt=  0.0000  0.0000  0.0000 (reduced coord)
 -62.04285  -36.16390  -35.92792  -35.92792  -14.71207  -13.83405   -6.30318   -3.15121
  -2.98084   -2.98084   -2.02830   -2.02830   -1.56961    1.49096
 kpt#  12, nband= 14, wtk=  1.00000, kpt=  0.0000  0.0500  0.0500 (reduced coord)
 -62.03983  -36.16115  -35.93648  -35.92809  -14.67692  -13.81445   -6.25727   -3.22693
  -3.07168   -2.94413   -2.08756   -2.01647   -1.57169    1.45121
 kpt#  13, nband= 14, wtk=  1.00000, kpt=  0.0000  0.1000  0.1000 (reduced coord)
 -62.04261  -36.15756  -35.96528  -35.93540  -14.57376  -13.75692   -6.12567   -3.42308
  -3.32403   -2.83927   -2.24893   -2.03036   -1.58913    1.15394
 kpt#  14, nband= 14, wtk=  1.00000, kpt=  0.0000  0.1500  0.1500 (reduced coord)
 -62.04182  -36.15121  -36.00526  -35.94491  -14.40751  -13.66436   -5.92618   -3.69288
  -3.68659   -2.67405   -2.47470   -2.14066   -1.64870    0.80105
 kpt#  15, nband= 14, wtk=  1.00000, kpt=  0.0000  0.2000  0.2000 (reduced coord)
 -62.04074  -36.14273  -36.05539  -35.95749  -14.18717  -13.54199   -5.69690   -4.09774
  -4.01304   -2.72624   -2.46706   -2.35388   -1.77567    0.60586
 kpt#  16, nband= 14, wtk=  1.00000, kpt=  0.0000  0.2500  0.2500 (reduced coord)
 -62.03498  -36.13282  -36.10462  -35.97146  -13.92600  -13.39797   -5.52304   -4.47292
  -4.37252   -2.97373   -2.60815   -2.24333   -1.94377    0.57773
 kpt#  17, nband= 14, wtk=  1.00000, kpt=  0.0000  0.3000  0.3000 (reduced coord)
 -62.03200  -36.15695  -36.12324  -35.98551  -13.64331  -13.24375   -5.56548   -4.75236
  -4.67844   -3.19691   -2.83846   -2.06472   -2.03350    0.69847
 kpt#  18, nband= 14, wtk=  1.00000, kpt=  0.0000  0.3500  0.3500 (reduced coord)
 -62.03139  -36.20849  -36.11389  -35.99727  -13.36423  -13.09410   -5.83863   -5.11585
  -4.71693   -3.38160   -3.01380   -2.06295   -1.86516    0.89068
 kpt#  19, nband= 14, wtk=  1.00000, kpt=  0.0000  0.4000  0.4000 (reduced coord)
 -62.02983  -36.24833  -36.10811  -36.00404  -13.12194  -12.96697   -6.14583   -5.41807
  -4.74139   -3.51911   -3.13122   -1.94957   -1.75173    1.12636
 kpt#  20, nband= 14, wtk=  1.00000, kpt=  0.0000  0.4500  0.4500 (reduced coord)
 -62.02800  -36.27141  -36.10303  -36.01098  -12.95405  -12.88081   -6.36844   -5.61804
  -4.77533   -3.60368   -3.19713   -1.81798   -1.69055    1.24662
 kpt#  21, nband= 14, wtk=  1.00000, kpt=  0.0000  0.5000  0.5000 (reduced coord)
 -62.02661  -36.28043  -36.10231  -36.00996  -12.89358  -12.85025   -6.44947   -5.68819
  -4.79078   -3.63213   -3.21842   -1.76127   -1.67164    1.39385
 kpt#  22, nband= 14, wtk=  1.00000, kpt=  0.0588  0.5294  0.5294 (reduced coord)
 -62.02540  -36.27737  -36.10070  -36.01634  -12.87724  -12.83864   -6.40163   -5.69228
  -4.77015   -3.70769   -3.19064   -2.11931   -1.48195    1.16923
 kpt#  23, nband= 14, wtk=  1.00000, kpt=  0.1176  0.5588  0.5588 (reduced coord)
 -62.02969  -36.26827  -36.09967  -36.04208  -12.83134  -12.80631   -6.26161   -5.71132
  -4.71543   -3.85408   -3.16710   -2.67400   -1.36263    1.07071
 kpt#  24, nband= 14, wtk=  1.00000, kpt=  0.1765  0.5882  0.5882 (reduced coord)
 -62.02798  -36.25069  -36.09714  -36.07331  -12.76539  -12.76049   -6.03918   -5.75825
  -4.64530   -3.96566   -3.30965   -3.19947   -1.27398    1.02188
 kpt#  25, nband= 14, wtk=  1.00000, kpt=  0.2353  0.6176  0.6176 (reduced coord)
 -62.03318  -36.22932  -36.11685  -36.09587  -12.71303  -12.69561   -5.83187   -5.75421
  -4.59951   -3.99069   -3.91850   -3.29176   -1.17392    1.02195
 kpt#  26, nband= 14, wtk=  1.00000, kpt=  0.2941  0.6471  0.6471 (reduced coord)
 -62.03435  -36.20426  -36.15408  -36.09475  -12.67877  -12.64370   -5.89918   -5.45601
  -4.69454   -4.29062   -3.94247   -3.40737   -1.07729    0.84213
 kpt#  27, nband= 14, wtk=  1.00000, kpt=  0.3529  0.6765  0.6765 (reduced coord)
 -62.03397  -36.19593  -36.16332  -36.09484  -12.67315  -12.63499   -5.91118   -5.38222
  -4.75877   -4.32562   -3.92658   -3.43314   -1.05869    0.91810
 kpt#  28, nband= 14, wtk=  1.00000, kpt=  0.4118  0.7059  0.7059 (reduced coord)
 -62.03317  -36.21358  -36.13527  -36.09453  -12.70791  -12.69285   -5.82723   -5.58416
  -4.52060   -4.22232   -4.02625   -3.27896   -1.16723    0.89248
 kpt#  29, nband= 14, wtk=  1.00000, kpt=  0.4706  0.7353  0.7353 (reduced coord)
 -62.03384  -36.21998  -36.10299  -36.09857  -12.82989  -12.78730   -5.70644   -5.62688
  -4.43199   -4.14727   -3.88980   -3.03391   -1.35318    0.82608
 kpt#  30, nband= 14, wtk=  1.00000, kpt=  0.5294  0.7647  0.7647 (reduced coord)
 -62.02993  -36.20726  -36.10441  -36.06798  -13.04180  -12.90679   -5.68372   -5.31045
  -4.45763   -4.21987   -3.47442   -2.76692   -1.53255    0.67873
 kpt#  31, nband= 14, wtk=  1.00000, kpt=  0.5882  0.7941  0.7941 (reduced coord)
 -62.03012  -36.18136  -36.11185  -36.03778  -13.30880  -13.05518   -5.54635   -4.90214
  -4.54305   -4.20742   -3.07444   -2.51425   -1.66324    0.48161
 kpt#  32, nband= 14, wtk=  1.00000, kpt=  0.6471  0.8235  0.8235 (reduced coord)
 -62.03206  -36.14246  -36.12293  -36.00979  -13.60331  -13.21814   -5.40113   -4.60644
  -4.47730   -4.05215   -2.72834   -2.30025   -1.76086    0.36884
 kpt#  33, nband= 14, wtk=  1.00000, kpt=  0.7059  0.8529  0.8529 (reduced coord)
 -62.03848  -36.13272  -36.10124  -35.98670  -13.89771  -13.38099   -5.44706   -4.45536
  -4.17672   -3.65221   -2.50967   -2.14012   -1.82036    0.39877
 kpt#  34, nband= 14, wtk=  1.00000, kpt=  0.7647  0.8824  0.8824 (reduced coord)
 -62.04454  -36.14383  -36.05513  -35.96684  -14.16820  -13.53113   -5.66409   -4.10552
  -3.93396   -3.13620   -2.52405   -2.03921   -1.75780    0.54317
 kpt#  35, nband= 14, wtk=  1.00000, kpt=  0.8235  0.9118  0.9118 (reduced coord)
 -62.04249  -36.15032  -36.00607  -35.94902  -14.39626  -13.65803   -5.91064   -3.70194
  -3.67887   -2.67781   -2.65833   -1.99285   -1.64989    0.78086
 kpt#  36, nband= 14, wtk=  1.00000, kpt=  0.8824  0.9412  0.9412 (reduced coord)
 -62.04237  -36.15696  -35.96720  -35.93524  -14.56858  -13.75402   -6.11892   -3.42776
  -3.33463   -2.83597   -2.29975   -1.99092   -1.58960    1.13140
 kpt#  37, nband= 14, wtk=  1.00000, kpt=  0.9412  0.9706  0.9706 (reduced coord)
 -62.03878  -36.16150  -35.93580  -35.92722  -14.67556  -13.81373   -6.25563   -3.22961
  -3.07408   -2.94318   -2.09300   -2.01321   -1.57147    1.39583
 kpt#  38, nband= 14, wtk=  1.00000, kpt=  1.0000  1.0000  1.0000 (reduced coord)
 -62.04285  -36.16390  -35.92792  -35.92792  -14.71207  -13.83405   -6.30318   -3.15121
  -2.98084   -2.98084   -2.02830   -2.02830   -1.56961    1.49206

== END DATASET(S) ==============================================================
================================================================================
  
 -outvars: echo values of variables after computation  --------
            acell      6.0300000000E+00  6.0300000000E+00  3.2970000000E+01 Bohr
              amu      9.59400000E+01  3.20660000E+01
      chksymbreak           0
           diemac      1.20000000E+01
             ecut      2.00000000E+01 Hartree
           enunit1          0
           enunit2          1
           etotal1    -9.2359679941E+01
            fcart1    -0.0000000000E+00 -9.5262185894E-28 -0.0000000000E+00
                      -4.1249736502E-28  1.1907773237E-27  4.3251682666E-02
                       4.1249736502E-28 -2.3815546473E-28 -4.3251682666E-02
-          fftalg         112
           getden1          0
           getden2         -1
             iscf1          7
             iscf2         -2
           istwfk2       3    0    0    0    0    0    0    0    0    0
                         2    0    0    0    0    0    0    0    0    0
                         8    0    0    0    0    0    0    0    0    0
                         0    0    0    0    0    0    0    0
                       outvar_i_n : Printing only first  50 k-points.
              ixc          11
           jdtset        1    2
              kpt1    -8.33333333E-02  0.00000000E+00  0.00000000E+00
                      -2.50000000E-01  0.00000000E+00  0.00000000E+00
                      -1.66666667E-01  0.00000000E+00  1.56250000E-02
                      -8.33333333E-02  0.00000000E+00  3.12500000E-02
                      -1.66666667E-01  8.33333333E-02  0.00000000E+00
                      -8.33333333E-02  8.33333333E-02  1.56250000E-02
                      -4.16666667E-01  0.00000000E+00  0.00000000E+00
                      -3.33333333E-01  0.00000000E+00  1.56250000E-02
                      -2.50000000E-01  0.00000000E+00  3.12500000E-02
                      -1.66666667E-01  0.00000000E+00  4.68750000E-02
                      -8.33333333E-02  0.00000000E+00  6.25000000E-02
                      -3.33333333E-01  8.33333333E-02  0.00000000E+00
                      -2.50000000E-01  8.33333333E-02  1.56250000E-02
                      -1.66666667E-01  8.33333333E-02  3.12500000E-02
                      -8.33333333E-02  8.33333333E-02  4.68750000E-02
                      -2.50000000E-01  1.66666667E-01  0.00000000E+00
                      -1.66666667E-01  1.66666667E-01  1.56250000E-02
                       5.00000000E-01  0.00000000E+00  1.56250000E-02
                      -4.16666667E-01  0.00000000E+00  3.12500000E-02
                      -3.33333333E-01  0.00000000E+00  4.68750000E-02
                      -2.50000000E-01  0.00000000E+00  6.25000000E-02
                      -1.66666667E-01  0.00000000E+00  7.81250000E-02
                      -8.33333333E-02  0.00000000E+00  9.37500000E-02
                       5.00000000E-01  8.33333333E-02  0.00000000E+00
                      -4.16666667E-01  8.33333333E-02  1.56250000E-02
                      -3.33333333E-01  8.33333333E-02  3.12500000E-02
                      -2.50000000E-01  8.33333333E-02  4.68750000E-02
                      -1.66666667E-01  8.33333333E-02  6.25000000E-02
                      -8.33333333E-02  8.33333333E-02  7.81250000E-02
                      -4.16666667E-01  1.66666667E-01  0.00000000E+00
                      -3.33333333E-01  1.66666667E-01  1.56250000E-02
                      -2.50000000E-01  1.66666667E-01  3.12500000E-02
                      -1.66666667E-01  1.66666667E-01  4.68750000E-02
                      -3.33333333E-01  2.50000000E-01  0.00000000E+00
                      -2.50000000E-01  2.50000000E-01  1.56250000E-02
                       5.00000000E-01  0.00000000E+00  4.68750000E-02
                      -4.16666667E-01  0.00000000E+00  6.25000000E-02
                      -3.33333333E-01  0.00000000E+00  7.81250000E-02
                      -2.50000000E-01  0.00000000E+00  9.37500000E-02
                      -1.66666667E-01  0.00000000E+00  1.09375000E-01
                      -8.33333333E-02  0.00000000E+00  1.25000000E-01
                       3.33333333E-01  8.33333333E-02  0.00000000E+00
                       4.16666667E-01  8.33333333E-02  1.56250000E-02
                       5.00000000E-01  8.33333333E-02  3.12500000E-02
                      -4.16666667E-01  8.33333333E-02  4.68750000E-02
                      -3.33333333E-01  8.33333333E-02  6.25000000E-02
                      -2.50000000E-01  8.33333333E-02  7.81250000E-02
                      -1.66666667E-01  8.33333333E-02  9.37500000E-02
                      -8.33333333E-02  8.33333333E-02  1.09375000E-01
                      -4.16666667E-01  1.66666667E-01  3.12500000E-02
              kpt2     5.00000000E-01  0.00000000E+00  0.00000000E+00
                       4.50000000E-01  0.00000000E+00  0.00000000E+00
                       4.00000000E-01  0.00000000E+00  0.00000000E+00
                       3.50000000E-01  0.00000000E+00  0.00000000E+00
                       3.00000000E-01  0.00000000E+00  0.00000000E+00
                       2.50000000E-01  0.00000000E+00  0.00000000E+00
                       2.00000000E-01  0.00000000E+00  0.00000000E+00
                       1.50000000E-01  0.00000000E+00  0.00000000E+00
                       1.00000000E-01  0.00000000E+00  0.00000000E+00
                       5.00000000E-02  0.00000000E+00  0.00000000E+00
                       0.00000000E+00  0.00000000E+00  0.00000000E+00
                       0.00000000E+00  5.00000000E-02  5.00000000E-02
                       0.00000000E+00  1.00000000E-01  1.00000000E-01
                       0.00000000E+00  1.50000000E-01  1.50000000E-01
                       0.00000000E+00  2.00000000E-01  2.00000000E-01
                       0.00000000E+00  2.50000000E-01  2.50000000E-01
                       0.00000000E+00  3.00000000E-01  3.00000000E-01
                       0.00000000E+00  3.50000000E-01  3.50000000E-01
                       0.00000000E+00  4.00000000E-01  4.00000000E-01
                       0.00000000E+00  4.50000000E-01  4.50000000E-01
                       0.00000000E+00  5.00000000E-01  5.00000000E-01
                       5.88235294E-02  5.29411765E-01  5.29411765E-01
                       1.17647059E-01  5.58823529E-01  5.58823529E-01
                       1.76470588E-01  5.88235294E-01  5.88235294E-01
                       2.35294118E-01  6.17647059E-01  6.17647059E-01
                       2.94117647E-01  6.47058824E-01  6.47058824E-01
                       3.52941176E-01  6.76470588E-01  6.76470588E-01
                       4.11764706E-01  7.05882353E-01  7.05882353E-01
                       4.70588235E-01  7.35294118E-01  7.35294118E-01
                       5.29411765E-01  7.64705882E-01  7.64705882E-01
                       5.88235294E-01  7.94117647E-01  7.94117647E-01
                       6.47058824E-01  8.23529412E-01  8.23529412E-01
                       7.05882353E-01  8.52941176E-01  8.52941176E-01
                       7.64705882E-01  8.82352941E-01  8.82352941E-01
                       8.23529412E-01  9.11764706E-01  9.11764706E-01
                       8.82352941E-01  9.41176471E-01  9.41176471E-01
                       9.41176471E-01  9.70588235E-01  9.70588235E-01
                       1.00000000E+00  1.00000000E+00  1.00000000E+00
                       outvar_i_n : Printing only first  50 k-points.
           kptopt1          1
           kptopt2         -3
         kptrlatt       12    0    0      0   12    0     -6    6   32
          kptrlen1     7.23600000E+01
          kptrlen2     3.00000000E+01
P           mkmem1        508
P           mkmem2         38
            natom           3
            nband1         14
            nband2         14
           nbdbuf1          0
           nbdbuf2          2
           ndtset           2
           ndivsm1          0
           ndivsm2         10
            ngfft          27      27     135
             nkpt1        508
             nkpt2         38
            nstep          20
             nsym          12
           ntypat           2
              occ      2.000000  2.000000  2.000000  2.000000  2.000000  2.000000
                       2.000000  2.000000  2.000000  2.000000  2.000000  2.000000
                       2.000000  0.000000
            rprim      8.6602540378E-01 -5.0000000000E-01  0.0000000000E+00
                       8.6602540378E-01  5.0000000000E-01  0.0000000000E+00
                       0.0000000000E+00  0.0000000000E+00  1.0000000000E+00
           shiftk1     0.00000000E+00  0.00000000E+00  5.00000000E-01
           shiftk2     5.00000000E-01  5.00000000E-01  5.00000000E-01
          spgroup         187
           strten1     3.4992235666E-04  3.4992235666E-04  5.3500620740E-04
                       0.0000000000E+00  0.0000000000E+00  0.0000000000E+00
           symrel      1  0  0   0  1  0   0  0  1       1 -1  0   0 -1  0   0  0 -1
                       0 -1  0   1 -1  0   0  0 -1      -1  0  0  -1  1  0   0  0  1
                      -1  1  0  -1  0  0   0  0  1       0  1  0   1  0  0   0  0 -1
                       1  0  0   0  1  0   0  0 -1       1 -1  0   0 -1  0   0  0  1
                       0 -1  0   1 -1  0   0  0  1      -1  0  0  -1  1  0   0  0 -1
                      -1  1  0  -1  0  0   0  0 -1       0  1  0   1  0  0   0  0  1
           toldfe1     1.00000000E-04 Hartree
           toldfe2     0.00000000E+00 Hartree
           tolwfr1     0.00000000E+00
           tolwfr2     1.00000000E-12
            typat      1  2  2
              wtk1       0.00087    0.00087    0.00260    0.00174    0.00174    0.00087
                         0.00087    0.00260    0.00174    0.00260    0.00174    0.00174
                         0.00174    0.00347    0.00087    0.00174    0.00260    0.00130
                         0.00174    0.00260    0.00174    0.00260    0.00174    0.00174
                         0.00174    0.00347    0.00174    0.00347    0.00087    0.00087
                         0.00521    0.00347    0.00260    0.00174    0.00087    0.00130
                         0.00174    0.00260    0.00174    0.00260    0.00174    0.00174
                         0.00174    0.00347    0.00174    0.00347    0.00174    0.00347
                         0.00087    0.00174
              wtk2       1.00000    1.00000    1.00000    1.00000    1.00000    1.00000
                         1.00000    1.00000    1.00000    1.00000    1.00000    1.00000
                         1.00000    1.00000    1.00000    1.00000    1.00000    1.00000
                         1.00000    1.00000    1.00000    1.00000    1.00000    1.00000
                         1.00000    1.00000    1.00000    1.00000    1.00000    1.00000
                         1.00000    1.00000    1.00000    1.00000    1.00000    1.00000
                         1.00000    1.00000
                       outvars : Printing only first  50 k-points.
           xangst      0.0000000000E+00  0.0000000000E+00  0.0000000000E+00
                       1.8422892411E+00  0.0000000000E+00 -1.7098033116E+00
                       1.8422892411E+00  0.0000000000E+00  1.7098033116E+00
            xcart      0.0000000000E+00  0.0000000000E+00  0.0000000000E+00
                       3.4814221232E+00  0.0000000000E+00 -3.2310600000E+00
                       3.4814221232E+00  0.0000000000E+00  3.2310600000E+00
             xred      0.0000000000E+00  0.0000000000E+00  0.0000000000E+00
                       3.3333333333E-01  3.3333333333E-01 -9.8000000000E-02
                       3.3333333333E-01  3.3333333333E-01  9.8000000000E-02
            znucl       42.00000   16.00000

================================================================================


- Timing analysis has been suppressed with timopt=0



================================================================================

 Suggested references for the acknowledgment of ABINIT usage.

 The users of ABINIT have little formal obligations with respect to the ABINIT group
 (those specified in the GNU General Public License, http://www.gnu.org/copyleft/gpl.txt).
 However, it is common practice in the scientific literature,
 to acknowledge the efforts of people that have made the research possible.
 In this spirit, please find below suggested citations of work written by ABINIT developers,
 corresponding to implementations inside of ABINIT that you have used in the present run.
 Note also that it will be of great value to readers of publications presenting these results,
 to read papers enabling them to understand the theoretical formalism and details
 of the ABINIT implementation.
 For information on why they are suggested, see also https://docs.abinit.org/theory/acknowledgments.
-
- [1] The Abinit project: Impact, environment and recent developments.
- Computer Phys. Comm. 248, 107042 (2020).
- X.Gonze, B. Amadon, G. Antonius, F.Arnardi, L.Baguet, J.-M.Beuken,
- J.Bieder, F.Bottin, J.Bouchet, E.Bousquet, N.Brouwer, F.Bruneval,
- G.Brunin, T.Cavignac, J.-B. Charraud, Wei Chen, M.Cote, S.Cottenier,
- J.Denier, G.Geneste, Ph.Ghosez, M.Giantomassi, Y.Gillet, O.Gingras,
- D.R.Hamann, G.Hautier, Xu He, N.Helbig, N.Holzwarth, Y.Jia, F.Jollet,
- W.Lafargue-Dit-Hauret, K.Lejaeghere, M.A.L.Marques, A.Martin, C.Martins,
- H.P.C. Miranda, F.Naccarato, K. Persson, G.Petretto, V.Planes, Y.Pouillon,
- S.Prokhorenko, F.Ricci, G.-M.Rignanese, A.H.Romero, M.M.Schmitt, M.Torrent,
- M.J.van Setten, B.Van Troeye, M.J.Verstraete, G.Zerah and J.W.Zwanzig
- Comment: the fifth generic paper describing the ABINIT project.
- Note that a version of this paper, that is not formatted for Computer Phys. Comm. 
- is available at https://www.abinit.org/sites/default/files/ABINIT20.pdf .
- The licence allows the authors to put it on the Web.
- DOI and bibtex: see https://docs.abinit.org/theory/bibliography/#gonze2020
-
- [2] Optimized norm-conserving Vanderbilt pseudopotentials.
- D.R. Hamann, Phys. Rev. B 88, 085117 (2013).
- Comment: Some pseudopotential generated using the ONCVPSP code were used.
- DOI and bibtex: see https://docs.abinit.org/theory/bibliography/#hamann2013
-
- [3] ABINIT: Overview, and focus on selected capabilities
- J. Chem. Phys. 152, 124102 (2020).
- A. Romero, D.C. Allan, B. Amadon, G. Antonius, T. Applencourt, L.Baguet,
- J.Bieder, F.Bottin, J.Bouchet, E.Bousquet, F.Bruneval,
- G.Brunin, D.Caliste, M.Cote,
- J.Denier, C. Dreyer, Ph.Ghosez, M.Giantomassi, Y.Gillet, O.Gingras,
- D.R.Hamann, G.Hautier, F.Jollet, G. Jomard,
- A.Martin, 
- H.P.C. Miranda, F.Naccarato, G.Petretto, N.A. Pike, V.Planes,
- S.Prokhorenko, T. Rangel, F.Ricci, G.-M.Rignanese, M.Royo, M.Stengel, M.Torrent,
- M.J.van Setten, B.Van Troeye, M.J.Verstraete, J.Wiktor, J.W.Zwanziger, and X.Gonze.
- Comment: a global overview of ABINIT, with focus on selected capabilities .
- Note that a version of this paper, that is not formatted for J. Chem. Phys 
- is available at https://www.abinit.org/sites/default/files/ABINIT20_JPC.pdf .
- The licence allows the authors to put it on the Web.
- DOI and bibtex: see https://docs.abinit.org/theory/bibliography/#romero2020
-
- [4] Recent developments in the ABINIT software package.
- Computer Phys. Comm. 205, 106 (2016).
- X.Gonze, F.Jollet, F.Abreu Araujo, D.Adams, B.Amadon, T.Applencourt,
- C.Audouze, J.-M.Beuken, J.Bieder, A.Bokhanchuk, E.Bousquet, F.Bruneval
- D.Caliste, M.Cote, F.Dahm, F.Da Pieve, M.Delaveau, M.Di Gennaro,
- B.Dorado, C.Espejo, G.Geneste, L.Genovese, A.Gerossier, M.Giantomassi,
- Y.Gillet, D.R.Hamann, L.He, G.Jomard, J.Laflamme Janssen, S.Le Roux,
- A.Levitt, A.Lherbier, F.Liu, I.Lukacevic, A.Martin, C.Martins,
- M.J.T.Oliveira, S.Ponce, Y.Pouillon, T.Rangel, G.-M.Rignanese,
- A.H.Romero, B.Rousseau, O.Rubel, A.A.Shukri, M.Stankovski, M.Torrent,
- M.J.Van Setten, B.Van Troeye, M.J.Verstraete, D.Waroquier, J.Wiktor,
- B.Xu, A.Zhou, J.W.Zwanziger.
- Comment: the fourth generic paper describing the ABINIT project.
- Note that a version of this paper, that is not formatted for Computer Phys. Comm. 
- is available at https://www.abinit.org/sites/default/files/ABINIT16.pdf .
- The licence allows the authors to put it on the Web.
- DOI and bibtex: see https://docs.abinit.org/theory/bibliography/#gonze2016
-
- And optionally:
-
- [5] ABINIT: First-principles approach of materials and nanosystem properties.
- Computer Phys. Comm. 180, 2582-2615 (2009).
- X. Gonze, B. Amadon, P.-M. Anglade, J.-M. Beuken, F. Bottin, P. Boulanger, F. Bruneval,
- D. Caliste, R. Caracas, M. Cote, T. Deutsch, L. Genovese, Ph. Ghosez, M. Giantomassi
- S. Goedecker, D.R. Hamann, P. Hermet, F. Jollet, G. Jomard, S. Leroux, M. Mancini, S. Mazevet,
- M.J.T. Oliveira, G. Onida, Y. Pouillon, T. Rangel, G.-M. Rignanese, D. Sangalli, R. Shaltaf,
- M. Torrent, M.J. Verstraete, G. Zerah, J.W. Zwanziger
- Comment: the third generic paper describing the ABINIT project.
- Note that a version of this paper, that is not formatted for Computer Phys. Comm. 
- is available at https://www.abinit.org/sites/default/files/ABINIT_CPC_v10.pdf .
- The licence allows the authors to put it on the Web.
- DOI and bibtex: see https://docs.abinit.org/theory/bibliography/#gonze2009
-
- Proc.   0 individual time (sec): cpu=       1958.2  wall=       1987.4

================================================================================

 Calculation completed.
.Delivered   2 WARNINGs and   5 COMMENTs to log file.
+Overall time at end (sec) : cpu=       1958.2  wall=       1987.4
