  ABINIT 9.6.2
  
-instrng: 86 lines of input have been read from file band


.Version 9.6.2 of ABINIT 
.(MPI version, prepared for a x86_64_linux_gnu11.2 computer) 

.Copyright (C) 1998-2021 ABINIT group . 
 ABINIT comes with ABSOLUTELY NO WARRANTY.
 It is free software, and you are welcome to redistribute it
 under certain conditions (GNU General Public License,
 see ~abinit/COPYING or http://www.gnu.org/copyleft/gpl.txt).

 ABINIT is a project of the Universite Catholique de Louvain,
 Corning Inc. and other collaborators, see ~abinit/doc/developers/contributors.txt .
 Please read https://docs.abinit.org/theory/acknowledgments for suggested
 acknowledgments of the ABINIT effort.
 For more information, see https://www.abinit.org .

.Starting date : Sat 19 Nov 2022.
- ( at 11h27 )
  

 ++++++++++++++++++++++++++++++++++++++++++++++++++++++++++++++++++++++++++++++

 === Build Information === 
  Version       : 9.6.2
  Build target  : x86_64_linux_gnu11.2
  Build date    : 20220106

 === Compiler Suite === 
  C compiler       : gnu11.2
  C++ compiler     : gnu11.2
  Fortran compiler : gnu11.2
  CFLAGS           : -g -O2 -ffile-prefix-map=/build/abinit-GxX7li/abinit-9.6.2=. -fstack-protector-strong -Wformat -Werror=format-security
  CXXFLAGS         : -g -O2 -ffile-prefix-map=/build/abinit-GxX7li/abinit-9.6.2=. -fstack-protector-strong -Wformat -Werror=format-security
  FCFLAGS          : -g -O2 -ffile-prefix-map=/build/abinit-GxX7li/abinit-9.6.2=. -fstac ...
  FC_LDFLAGS       : 

 === Optimizations === 
  Debug level        : basic
  Optimization level : standard
  Architecture       : intel_xeon

 === Multicore === 
  Parallel build : 
  Parallel I/O   : 
  openMP support : 
  GPU support    : 

 === Connectors / Fallbacks === 
  LINALG flavor  : netlib
  FFT flavor     : goedecker
  HDF5           : yes
  NetCDF         : yes
  NetCDF Fortran : yes
  LibXC          : yes
  Wannier90      : no

 === Experimental features === 
  Exports             : 
  GW double-precision : 

 ++++++++++++++++++++++++++++++++++++++++++++++++++++++++++++++++++++++++++++++


 ++++++++++++++++++++++++++++++++++++++++++++++++++++++++++++++++++++++++++++++
 Default optimizations:
   --- None ---


 ++++++++++++++++++++++++++++++++++++++++++++++++++++++++++++++++++++++++++++++


 ++++++++++++++++++++++++++++++++++++++++++++++++++++++++++++++++++++++++++++++
 CPP options activated during the build:

                    CC_GNU                   CXX_GNU                    FC_GNU
 
 HAVE_FC_ALLOCATABLE_DT...             HAVE_FC_ASYNC         HAVE_FC_BACKTRACE
 
  HAVE_FC_COMMAND_ARGUMENT      HAVE_FC_COMMAND_LINE        HAVE_FC_CONTIGUOUS
 
           HAVE_FC_CPUTIME              HAVE_FC_EXIT             HAVE_FC_FLUSH
 
             HAVE_FC_GAMMA            HAVE_FC_GETENV   HAVE_FC_IEEE_ARITHMETIC
 
   HAVE_FC_IEEE_EXCEPTIONS          HAVE_FC_INT_QUAD             HAVE_FC_IOMSG
 
     HAVE_FC_ISO_C_BINDING  HAVE_FC_ISO_FORTRAN_2008        HAVE_FC_LONG_LINES
 
        HAVE_FC_MOVE_ALLOC  HAVE_FC_ON_THE_FLY_SHAPE           HAVE_FC_PRIVATE
 
         HAVE_FC_PROTECTED           HAVE_FC_SHIFTLR         HAVE_FC_STREAM_IO
 
            HAVE_FC_SYSTEM          HAVE_FORTRAN2003                 HAVE_HDF5
 
        HAVE_LIBPAW_ABINIT      HAVE_LIBTETRA_ABINIT                HAVE_LIBXC
 
                  HAVE_MPI                 HAVE_MPI2       HAVE_MPI_IALLGATHER
 
       HAVE_MPI_IALLREDUCE        HAVE_MPI_IALLTOALL       HAVE_MPI_IALLTOALLV
 
           HAVE_MPI_IBCAST         HAVE_MPI_IGATHERV        HAVE_MPI_INTEGER16
 
               HAVE_MPI_IO HAVE_MPI_TYPE_CREATE_S...               HAVE_NETCDF
 
       HAVE_NETCDF_FORTRAN                HAVE_NUMPY             HAVE_OS_LINUX
 
         HAVE_TIMER_ABINIT                                                      
 ++++++++++++++++++++++++++++++++++++++++++++++++++++++++++++++++++++++++++++++

- input  file    -> band
- output file    -> band.abo
- root for input  files -> i
- root for output files -> o

-instrng: 86 lines of input have been read from file band

 For atom type 1, psp file is Mo.psp8
 For atom type 2, psp file is S.psp8
  read the values zionpsp= 14.0 , pspcod=   8 , lmax=   2
  read the values zionpsp=  6.0 , pspcod=   8 , lmax=   2

 inpspheads: deduce mpsang = 3, n1xccc = 2501.

======================================================= 
 invars1m : enter jdtset= 1

 symlatt: the Bravais lattice is hP (primitive hexagonal)
  xred   is defined in input file
 ingeo: takes atomic coordinates from input array xred

--- !COMMENT
src_file: m_ingeo.F90
src_line: 900
message: |
    The tolerance on symmetries =   1.000E-05 is bigger than 1.0e-8.
    In order to avoid spurious effects, the atomic coordinates have been
    symmetrized before storing them in the dataset internal variable.
    So, do not be surprised by the fact that your input variables (xcart, xred, ...)
    do not correspond exactly to the ones echoed by ABINIT, the latter being used to do the calculations.
    This is not a problem per se.
    Still, in order to avoid this symmetrization (e.g. for specific debugging/development), decrease tolsym to 1.0e-8 or lower,
    or (much preferred) use input primitive vectors that are accurate to better than 1.0e-8.
    This message will only be printed once, even if there are other datasets where tolsym is bigger than 1.0e-8.
...


 symlatt: the Bravais lattice is hP (primitive hexagonal)

 symlatt: the Bravais lattice is hP (primitive hexagonal)
 symspgr: spgroup= 187  P-6 m 2   (=D3h^1)
 symspgr: optical characteristics = uniaxial
 Optical axis (in reduced coordinates, real space ) :   0   0   1

======================================================= 
 invars1m : enter jdtset= 2

 symlatt: the Bravais lattice is hP (primitive hexagonal)
  xred   is defined in input file
 ingeo: takes atomic coordinates from input array xred

 symlatt: the Bravais lattice is hP (primitive hexagonal)

 symlatt: the Bravais lattice is hP (primitive hexagonal)
 symspgr: spgroup= 187  P-6 m 2   (=D3h^1)
 symspgr: optical characteristics = uniaxial
 Optical axis (in reduced coordinates, real space ) :   0   0   1
 Real(R)+Recip(G) space primitive vectors, cartesian coordinates (Bohr,Bohr^-1):
 R(1)=  5.2221332 -3.0150000  0.0000000  G(1)=  0.0957463 -0.1658375  0.0000000
 R(2)=  5.2221332  3.0150000  0.0000000  G(2)=  0.0957463  0.1658375  0.0000000
 R(3)=  0.0000000  0.0000000 32.9700000  G(3)=  0.0000000  0.0000000  0.0303306
 Unit cell volume ucvol=  1.0382076E+03 bohr^3
 Unit cell volume ucvol=  1.0382076E+03 bohr^3
 Angles (23,13,12)=  9.00000000E+01  9.00000000E+01  6.00000000E+01 degrees
 Angles (23,13,12)=  9.00000000E+01  9.00000000E+01  6.00000000E+01 degrees
   9.5746313298445407E-002   9.6939893174125408E-002  0.16652944457091962     

 mknormpath : total number of points on the path:       38

 Number of divisions for each segment of the normalized path:
 0.50000 0.00000 0.00000 ==>  0.00000 0.00000 0.00000 ( ndiv:    10 )
 0.00000 0.00000 0.00000 ==>  0.00000 0.50000 0.50000 ( ndiv:    10 )
 0.00000 0.50000 0.50000 ==>  1.00000 1.00000 1.00000 ( ndiv:    17 )


 invars2: take the default value of fband=  1.25000000E-01
 Real(R)+Recip(G) space primitive vectors, cartesian coordinates (Bohr,Bohr^-1):
 R(1)=  5.2221332 -3.0150000  0.0000000  G(1)=  0.0957463 -0.1658375  0.0000000
 R(2)=  5.2221332  3.0150000  0.0000000  G(2)=  0.0957463  0.1658375  0.0000000
 R(3)=  0.0000000  0.0000000 32.9700000  G(3)=  0.0000000  0.0000000  0.0303306
 Unit cell volume ucvol=  1.0382076E+03 bohr^3
 Unit cell volume ucvol=  1.0382076E+03 bohr^3
 Angles (23,13,12)=  9.00000000E+01  9.00000000E+01  6.00000000E+01 degrees
 Angles (23,13,12)=  9.00000000E+01  9.00000000E+01  6.00000000E+01 degrees
   9.5746313298445407E-002   9.6939893174125408E-002  0.16652944457091962     

 mknormpath : total number of points on the path:       38

 Number of divisions for each segment of the normalized path:
 0.50000 0.00000 0.00000 ==>  0.00000 0.00000 0.00000 ( ndiv:    10 )
 0.00000 0.00000 0.00000 ==>  0.00000 0.50000 0.50000 ( ndiv:    10 )
 0.00000 0.50000 0.50000 ==>  1.00000 1.00000 1.00000 ( ndiv:    17 )


 For input ecut=  2.000000E+01 best grid ngfft=      27      27     135
       max ecut=  2.037893E+01

 ==== FFT mesh ====
  FFT mesh divisions ........................    27   27  135
  Augmented FFT divisions ...................    27   27  135
  FFT algorithm .............................   112
  FFT cache size ............................    16
 getmpw: optimal value of mpw= 4503
 For input ecut=  2.000000E+01 best grid ngfft=      27      27     135
       max ecut=  2.037893E+01

 ==== FFT mesh ====
  FFT mesh divisions ........................    27   27  135
  Augmented FFT divisions ...................    27   27  135
  FFT algorithm .............................   112
  FFT cache size ............................    16
 getmpw: optimal value of mpw= 4483

 DATASET    1 : space group P-6 m 2 (#187); Bravais hP (primitive hexag.)

 getdim_nloc : deduce lmnmax  =  18, lnmax  =   6,
                      lmnmaxso=  18, lnmaxso=   6.
memory: analysis of memory needs
================================================================================
 Values of the parameters that define the memory need for DATASET  1.
     intxc =       0    ionmov =       0      iscf =       7    lmnmax =       6
     lnmax =       6     mgfft =     135  mpssoang =       3    mqgrid =    6638
     natom =       3  nloc_mem =       1    nspden =       1   nspinor =       1
    nsppol =       1      nsym =      12    n1xccc =    2501    ntypat =       2
    occopt =       1   xclevel =       2
-    mband =          14        mffmem =           1         mkmem =         508
       mpw =        4503          nfft =       98415          nkpt =         508
================================================================================
P This job should need less than                     549.487 Mbytes of memory.
  Rough estimation (10% accuracy) of disk space for files :
_ WF disk file :    488.670 Mbytes ; DEN or POT disk file :      0.753 Mbytes.
================================================================================

 Biggest array : cg(disk), with    488.6698 MBytes.
 memana : allocated an array of    488.670 Mbytes, for testing purposes.
 memana: allocated     549.487Mbytes, for testing purposes. 
 The job will continue.

 DATASET    2 : space group P-6 m 2 (#187); Bravais hP (primitive hexag.)

 getdim_nloc : deduce lmnmax  =  18, lnmax  =   6,
                      lmnmaxso=  18, lnmaxso=   6.
memory: analysis of memory needs
================================================================================
 Values of the parameters that define the memory need for DATASET  2.
     intxc =       0    ionmov =       0      iscf =      -2    lmnmax =       6
     lnmax =       6     mgfft =     135  mpssoang =       3    mqgrid =    6638
     natom =       3  nloc_mem =       1    nspden =       1   nspinor =       1
    nsppol =       1      nsym =      12    n1xccc =    2501    ntypat =       2
    occopt =       1   xclevel =       2
-    mband =          14        mffmem =           1         mkmem =          38
       mpw =        4483          nfft =       98415          nkpt =          38
================================================================================
P This job should need less than                      59.808 Mbytes of memory.
  Rough estimation (10% accuracy) of disk space for files :
_ WF disk file :     36.394 Mbytes ; DEN or POT disk file :      0.753 Mbytes.
================================================================================

 Biggest array : cg(disk), with     36.3935 MBytes.
 memana : allocated an array of     36.394 Mbytes, for testing purposes.
 memana: allocated      59.808Mbytes, for testing purposes. 
 The job will continue.
--------------------------------------------------------------------------------
------------- Echo of variables that govern the present computation ------------
--------------------------------------------------------------------------------
-
- outvars: echo of selected default values                                      
-   iomode0 =  0 , fftalg0 =112 , wfoptalg0 =  0
-
- outvars: echo of global parameters not present in the input file              
-  max_nthreads =    0
-
 -outvars: echo values of preprocessed input variables --------
 
 These variables are accessible in NetCDF format (o_OUT.nc)

            acell      6.0300000000E+00  6.0300000000E+00  3.2970000000E+01 Bohr
              amu      9.59400000E+01  3.20660000E+01
      chksymbreak           0
           diemac      1.20000000E+01
             ecut      2.00000000E+01 Hartree
           enunit1          0
           enunit2          1
-          fftalg         112
           getden1          0
           getden2         -1
             iscf1          7
             iscf2         -2
           istwfk2       3    0    0    0    0    0    0    0    0    0
                         2    0    0    0    0    0    0    0    0    0
                         8    0    0    0    0    0    0    0    0    0
                         0    0    0    0    0    0    0    0
                       outvar_i_n : Printing only first  50 k-points.
              ixc          11
           jdtset        1    2
              kpt1    -8.33333333E-02  0.00000000E+00  0.00000000E+00
                      -2.50000000E-01  0.00000000E+00  0.00000000E+00
                      -1.66666667E-01  0.00000000E+00  1.56250000E-02
                      -8.33333333E-02  0.00000000E+00  3.12500000E-02
                      -1.66666667E-01  8.33333333E-02  0.00000000E+00
                      -8.33333333E-02  8.33333333E-02  1.56250000E-02
                      -4.16666667E-01  0.00000000E+00  0.00000000E+00
                      -3.33333333E-01  0.00000000E+00  1.56250000E-02
                      -2.50000000E-01  0.00000000E+00  3.12500000E-02
                      -1.66666667E-01  0.00000000E+00  4.68750000E-02
                      -8.33333333E-02  0.00000000E+00  6.25000000E-02
                      -3.33333333E-01  8.33333333E-02  0.00000000E+00
                      -2.50000000E-01  8.33333333E-02  1.56250000E-02
                      -1.66666667E-01  8.33333333E-02  3.12500000E-02
                      -8.33333333E-02  8.33333333E-02  4.68750000E-02
                      -2.50000000E-01  1.66666667E-01  0.00000000E+00
                      -1.66666667E-01  1.66666667E-01  1.56250000E-02
                       5.00000000E-01  0.00000000E+00  1.56250000E-02
                      -4.16666667E-01  0.00000000E+00  3.12500000E-02
                      -3.33333333E-01  0.00000000E+00  4.68750000E-02
                      -2.50000000E-01  0.00000000E+00  6.25000000E-02
                      -1.66666667E-01  0.00000000E+00  7.81250000E-02
                      -8.33333333E-02  0.00000000E+00  9.37500000E-02
                       5.00000000E-01  8.33333333E-02  0.00000000E+00
                      -4.16666667E-01  8.33333333E-02  1.56250000E-02
                      -3.33333333E-01  8.33333333E-02  3.12500000E-02
                      -2.50000000E-01  8.33333333E-02  4.68750000E-02
                      -1.66666667E-01  8.33333333E-02  6.25000000E-02
                      -8.33333333E-02  8.33333333E-02  7.81250000E-02
                      -4.16666667E-01  1.66666667E-01  0.00000000E+00
                      -3.33333333E-01  1.66666667E-01  1.56250000E-02
                      -2.50000000E-01  1.66666667E-01  3.12500000E-02
                      -1.66666667E-01  1.66666667E-01  4.68750000E-02
                      -3.33333333E-01  2.50000000E-01  0.00000000E+00
                      -2.50000000E-01  2.50000000E-01  1.56250000E-02
                       5.00000000E-01  0.00000000E+00  4.68750000E-02
                      -4.16666667E-01  0.00000000E+00  6.25000000E-02
                      -3.33333333E-01  0.00000000E+00  7.81250000E-02
                      -2.50000000E-01  0.00000000E+00  9.37500000E-02
                      -1.66666667E-01  0.00000000E+00  1.09375000E-01
                      -8.33333333E-02  0.00000000E+00  1.25000000E-01
                       3.33333333E-01  8.33333333E-02  0.00000000E+00
                       4.16666667E-01  8.33333333E-02  1.56250000E-02
                       5.00000000E-01  8.33333333E-02  3.12500000E-02
                      -4.16666667E-01  8.33333333E-02  4.68750000E-02
                      -3.33333333E-01  8.33333333E-02  6.25000000E-02
                      -2.50000000E-01  8.33333333E-02  7.81250000E-02
                      -1.66666667E-01  8.33333333E-02  9.37500000E-02
                      -8.33333333E-02  8.33333333E-02  1.09375000E-01
                      -4.16666667E-01  1.66666667E-01  3.12500000E-02
              kpt2     5.00000000E-01  0.00000000E+00  0.00000000E+00
                       4.50000000E-01  0.00000000E+00  0.00000000E+00
                       4.00000000E-01  0.00000000E+00  0.00000000E+00
                       3.50000000E-01  0.00000000E+00  0.00000000E+00
                       3.00000000E-01  0.00000000E+00  0.00000000E+00
                       2.50000000E-01  0.00000000E+00  0.00000000E+00
                       2.00000000E-01  0.00000000E+00  0.00000000E+00
                       1.50000000E-01  0.00000000E+00  0.00000000E+00
                       1.00000000E-01  0.00000000E+00  0.00000000E+00
                       5.00000000E-02  0.00000000E+00  0.00000000E+00
                       0.00000000E+00  0.00000000E+00  0.00000000E+00
                       0.00000000E+00  5.00000000E-02  5.00000000E-02
                       0.00000000E+00  1.00000000E-01  1.00000000E-01
                       0.00000000E+00  1.50000000E-01  1.50000000E-01
                       0.00000000E+00  2.00000000E-01  2.00000000E-01
                       0.00000000E+00  2.50000000E-01  2.50000000E-01
                       0.00000000E+00  3.00000000E-01  3.00000000E-01
                       0.00000000E+00  3.50000000E-01  3.50000000E-01
                       0.00000000E+00  4.00000000E-01  4.00000000E-01
                       0.00000000E+00  4.50000000E-01  4.50000000E-01
                       0.00000000E+00  5.00000000E-01  5.00000000E-01
                       5.88235294E-02  5.29411765E-01  5.29411765E-01
                       1.17647059E-01  5.58823529E-01  5.58823529E-01
                       1.76470588E-01  5.88235294E-01  5.88235294E-01
                       2.35294118E-01  6.17647059E-01  6.17647059E-01
                       2.94117647E-01  6.47058824E-01  6.47058824E-01
                       3.52941176E-01  6.76470588E-01  6.76470588E-01
                       4.11764706E-01  7.05882353E-01  7.05882353E-01
                       4.70588235E-01  7.35294118E-01  7.35294118E-01
                       5.29411765E-01  7.64705882E-01  7.64705882E-01
                       5.88235294E-01  7.94117647E-01  7.94117647E-01
                       6.47058824E-01  8.23529412E-01  8.23529412E-01
                       7.05882353E-01  8.52941176E-01  8.52941176E-01
                       7.64705882E-01  8.82352941E-01  8.82352941E-01
                       8.23529412E-01  9.11764706E-01  9.11764706E-01
                       8.82352941E-01  9.41176471E-01  9.41176471E-01
                       9.41176471E-01  9.70588235E-01  9.70588235E-01
                       1.00000000E+00  1.00000000E+00  1.00000000E+00
                       outvar_i_n : Printing only first  50 k-points.
           kptopt1          1
           kptopt2         -3
         kptrlatt       12    0    0      0   12    0     -6    6   32
          kptrlen1     7.23600000E+01
          kptrlen2     3.00000000E+01
P           mkmem1        508
P           mkmem2         38
            natom           3
            nband1         14
            nband2         14
           nbdbuf1          0
           nbdbuf2          2
           ndtset           2
           ndivsm1          0
           ndivsm2         10
            ngfft          27      27     135
             nkpt1        508
             nkpt2         38
            nstep          20
             nsym          12
           ntypat           2
              occ      2.000000  2.000000  2.000000  2.000000  2.000000  2.000000
                       2.000000  2.000000  2.000000  2.000000  2.000000  2.000000
                       2.000000  0.000000
            rprim      8.6602540378E-01 -5.0000000000E-01  0.0000000000E+00
                       8.6602540378E-01  5.0000000000E-01  0.0000000000E+00
                       0.0000000000E+00  0.0000000000E+00  1.0000000000E+00
           shiftk1     0.00000000E+00  0.00000000E+00  5.00000000E-01
           shiftk2     5.00000000E-01  5.00000000E-01  5.00000000E-01
          spgroup         187
           symrel      1  0  0   0  1  0   0  0  1       1 -1  0   0 -1  0   0  0 -1
                       0 -1  0   1 -1  0   0  0 -1      -1  0  0  -1  1  0   0  0  1
                      -1  1  0  -1  0  0   0  0  1       0  1  0   1  0  0   0  0 -1
                       1  0  0   0  1  0   0  0 -1       1 -1  0   0 -1  0   0  0  1
                       0 -1  0   1 -1  0   0  0  1      -1  0  0  -1  1  0   0  0 -1
                      -1  1  0  -1  0  0   0  0 -1       0  1  0   1  0  0   0  0  1
           toldfe1     1.00000000E-04 Hartree
           toldfe2     0.00000000E+00 Hartree
           tolwfr1     0.00000000E+00
           tolwfr2     1.00000000E-12
            typat      1  2  2
              wtk1       0.00087    0.00087    0.00260    0.00174    0.00174    0.00087
                         0.00087    0.00260    0.00174    0.00260    0.00174    0.00174
                         0.00174    0.00347    0.00087    0.00174    0.00260    0.00130
                         0.00174    0.00260    0.00174    0.00260    0.00174    0.00174
                         0.00174    0.00347    0.00174    0.00347    0.00087    0.00087
                         0.00521    0.00347    0.00260    0.00174    0.00087    0.00130
                         0.00174    0.00260    0.00174    0.00260    0.00174    0.00174
                         0.00174    0.00347    0.00174    0.00347    0.00174    0.00347
                         0.00087    0.00174
              wtk2       1.00000    1.00000    1.00000    1.00000    1.00000    1.00000
                         1.00000    1.00000    1.00000    1.00000    1.00000    1.00000
                         1.00000    1.00000    1.00000    1.00000    1.00000    1.00000
                         1.00000    1.00000    1.00000    1.00000    1.00000    1.00000
                         1.00000    1.00000    1.00000    1.00000    1.00000    1.00000
                         1.00000    1.00000    1.00000    1.00000    1.00000    1.00000
                         1.00000    1.00000
                       outvars : Printing only first  50 k-points.
           xangst      0.0000000000E+00  0.0000000000E+00  0.0000000000E+00
                       1.8422892411E+00  0.0000000000E+00 -1.7098033116E+00
                       1.8422892411E+00  0.0000000000E+00  1.7098033116E+00
            xcart      0.0000000000E+00  0.0000000000E+00  0.0000000000E+00
                       3.4814221232E+00  0.0000000000E+00 -3.2310600000E+00
                       3.4814221232E+00  0.0000000000E+00  3.2310600000E+00
             xred      0.0000000000E+00  0.0000000000E+00  0.0000000000E+00
                       3.3333333333E-01  3.3333333333E-01 -9.8000000000E-02
                       3.3333333333E-01  3.3333333333E-01  9.8000000000E-02
            znucl       42.00000   16.00000

================================================================================

 chkinp: Checking input parameters for consistency, jdtset=   1.

 chkinp: Checking input parameters for consistency, jdtset=   2.
 DATA TYPE INFORMATION: 
 REAL:      Data type name: REAL(DP) 
            Kind value:      8
            Precision:      15
            Smallest nonnegligible quantity relative to 1: 0.22204460E-015
            Smallest positive number:                      0.22250739E-307
            Largest representable number:                  0.17976931E+309
 INTEGER:   Data type name: INTEGER(default) 
            Kind value: 4
            Bit size:   32
            Largest representable number: 2147483647
 LOGICAL:   Data type name: LOGICAL 
            Kind value: 4
 CHARACTER: Data type name: CHARACTER             Kind value: 1

  ==== OpenMP parallelism is OFF ====
 
  ==== Using MPI-2 specifications ==== 
  MPI-IO support is ON
  xmpi_tag_ub ................   2147483647
  xmpi_bsize_ch ..............            1
  xmpi_bsize_int .............            4
  xmpi_bsize_sp ..............            4
  xmpi_bsize_dp ..............            8
  xmpi_bsize_spc .............            8
  xmpi_bsize_dpc .............           16
  xmpio_bsize_frm ............            4
  xmpi_address_kind ..........            8
  xmpi_offset_kind ...........            8
  MPI_WTICK ..................    1.0000000000000001E-009

================================================================================
== DATASET  1 ==================================================================
-   mpi_nproc: 1, omp_nthreads: -1 (-1 if OMP is not activated)


--- !COMMENT
src_file: m_xgScalapack.F90
src_line: 236
message: |
    xgScalapack in auto mode
...


 getdim_nloc : deduce lmnmax  =  18, lnmax  =   6,
                      lmnmaxso=  18, lnmaxso=   6.
 Exchange-correlation functional for the present dataset will be:
  GGA: Perdew-Burke-Ernzerhof functional - ixc=11
 Citation for XC functional:
  J.P.Perdew, K.Burke, M.Ernzerhof, PRL 77, 3865 (1996)

 Unit cell volume ucvol=  1.0382076E+03 bohr^3
 Angles (23,13,12)=  9.00000000E+01  9.00000000E+01  6.00000000E+01 degrees

 getcut: wavevector=  0.0000  0.0000  0.0000  ngfft=  27  27 135
         ecut(hartree)=     20.000   => boxcut(ratio)=   2.01886
- pspini: atom type   1  psp file is Mo.psp8
- pspatm: opening atomic psp file    Mo.psp8
- Mo    ONCVPSP-3.2.3.1  r_core=   1.45541   1.45541   1.35488
- 42.00000  14.00000    170510                znucl, zion, pspdat
    8   11    2    4       600   0.00000      pspcod,pspxc,lmax,lloc,mmax,r2well
    5.99000000000000    3.00000000000000    0.00000000000000   rchrg,fchrg,qchrg
     nproj     2     2     2
     extension_switch     1
  valence charge integrates to:    13.910619929066559     
  pspatm : epsatm=   15.95693586
         --- l  ekb(1:nproj) -->
             0   13.833287    1.350687
             1    8.015347    1.134034
             2    2.765699    0.969071
 pspatm: atomic psp has been read  and splines computed

- pspini: atom type   2  psp file is S.psp8
- pspatm: opening atomic psp file    S.psp8
- S     ONCVPSP-3.2.3.1  r_core=   1.45376   1.45376   1.61851
- 16.00000   6.00000    170504                znucl, zion, pspdat
    8   11    2    4       600   0.00000      pspcod,pspxc,lmax,lloc,mmax,r2well
    5.99000000000000    6.00000000000000    0.00000000000000   rchrg,fchrg,qchrg
     nproj     2     2     2
     extension_switch     1
  valence charge integrates to:    5.9895206683396385     
  pspatm : epsatm=    9.01821879
         --- l  ekb(1:nproj) -->
             0    6.763951    0.574108
             1    3.227080    0.887329
             2   -3.547662   -0.986524
 pspatm: atomic psp has been read  and splines computed

   8.83827710E+02                                ecore*ucvol(ha*bohr**3)
 ==== Info on pseudopotentials ====
  Norm-conserving pseudopotentials
  Number of pseudopotentials ..    2
  Number of types of atoms   ..    2
  Scalar calculation (no spin-orbit term)
  Nonlocal part applied using Legendre polynomials
  Max number of non-local projectors over l and type   2
  Highest angular momentum +1 .......   3
  Max number of (l,n)   components ..   6
  Max number of (l,m,n) components ..   6

 Pseudo-Core Charge Info: 
   Number of radial points for pseudo-core charge .. 2501
   XC core-correction treatment (optnlxccc) ........    1
   Radius for pseudo-core charge for each type ..... 

  - Atom type    1 has pseudo-core radius ..  5.9900
  - Atom type    2 has pseudo-core radius ..  5.9900

 Info on the Q-grid used for form factors in spline form: 
   Number of q-points for radial functions ffspl ..   6638
   Number of q-points for vlspl ...................   6638
   vloc is computed in Reciprocal Space
   model core charge treated in real-space

  XC functional for type 1 is 11
  Pseudo valence available: yes
  XC functional for type 2 is 11
  Pseudo valence available: yes

 symatm: atom number 1 is reached starting at atom
   1  1  1  1  1  1  1  1  1  1  1  1
 symatm: atom number 2 is reached starting at atom
   2  3  3  2  2  3  3  2  2  3  3  2
 symatm: atom number 3 is reached starting at atom
   3  2  2  3  3  2  2  3  3  2  2  3
 wfconv:    14 bands initialized randomly with npw=  4385, for ikpt=     1
 wfconv:    14 bands initialized randomly with npw=  4421, for ikpt=     2
 wfconv:    14 bands initialized randomly with npw=  4413, for ikpt=     3
 wfconv:    14 bands initialized randomly with npw=  4383, for ikpt=     4
 wfconv:    14 bands initialized randomly with npw=  4423, for ikpt=     5
 wfconv:    14 bands initialized randomly with npw=  4405, for ikpt=     6
 wfconv:    14 bands initialized randomly with npw=  4446, for ikpt=     7
 wfconv:    14 bands initialized randomly with npw=  4426, for ikpt=     8
 wfconv:    14 bands initialized randomly with npw=  4424, for ikpt=     9
 wfconv:    14 bands initialized randomly with npw=  4413, for ikpt=    10
 wfconv:    14 bands initialized randomly with npw=  4389, for ikpt=    11
 wfconv:    14 bands initialized randomly with npw=  4437, for ikpt=    12
 wfconv:    14 bands initialized randomly with npw=  4417, for ikpt=    13
 wfconv:    14 bands initialized randomly with npw=  4426, for ikpt=    14
 wfconv:    14 bands initialized randomly with npw=  4409, for ikpt=    15
 wfconv:    14 bands initialized randomly with npw=  4430, for ikpt=    16
 wfconv:    14 bands initialized randomly with npw=  4422, for ikpt=    17
 wfconv:    14 bands initialized randomly with npw=  4428, for ikpt=    18
 wfconv:    14 bands initialized randomly with npw=  4442, for ikpt=    19
 wfconv:    14 bands initialized randomly with npw=  4424, for ikpt=    20
 wfconv:    14 bands initialized randomly with npw=  4422, for ikpt=    21
 wfconv:    14 bands initialized randomly with npw=  4413, for ikpt=    22
 wfconv:    14 bands initialized randomly with npw=  4387, for ikpt=    23
 wfconv:    14 bands initialized randomly with npw=  4452, for ikpt=    24
 wfconv:    14 bands initialized randomly with npw=  4452, for ikpt=    25
 wfconv:    14 bands initialized randomly with npw=  4431, for ikpt=    26
 wfconv:    14 bands initialized randomly with npw=  4420, for ikpt=    27
 wfconv:    14 bands initialized randomly with npw=  4423, for ikpt=    28
 wfconv:    14 bands initialized randomly with npw=  4415, for ikpt=    29
 wfconv:    14 bands initialized randomly with npw=  4460, for ikpt=    30
 wfconv:    14 bands initialized randomly with npw=  4456, for ikpt=    31
 wfconv:    14 bands initialized randomly with npw=  4429, for ikpt=    32
 wfconv:    14 bands initialized randomly with npw=  4426, for ikpt=    33
 wfconv:    14 bands initialized randomly with npw=  4470, for ikpt=    34
 wfconv:    14 bands initialized randomly with npw=  4468, for ikpt=    35
 wfconv:    14 bands initialized randomly with npw=  4426, for ikpt=    36
 wfconv:    14 bands initialized randomly with npw=  4445, for ikpt=    37
 wfconv:    14 bands initialized randomly with npw=  4420, for ikpt=    38
 wfconv:    14 bands initialized randomly with npw=  4423, for ikpt=    39
 wfconv:    14 bands initialized randomly with npw=  4416, for ikpt=    40
 wfconv:    14 bands initialized randomly with npw=  4394, for ikpt=    41
 wfconv:    14 bands initialized randomly with npw=  4418, for ikpt=    42
 wfconv:    14 bands initialized randomly with npw=  4438, for ikpt=    43
 wfconv:    14 bands initialized randomly with npw=  4451, for ikpt=    44
 wfconv:    14 bands initialized randomly with npw=  4448, for ikpt=    45
 wfconv:    14 bands initialized randomly with npw=  4434, for ikpt=    46
 wfconv:    14 bands initialized randomly with npw=  4416, for ikpt=    47
 wfconv:    14 bands initialized randomly with npw=  4424, for ikpt=    48
 wfconv:    14 bands initialized randomly with npw=  4413, for ikpt=    49
 wfconv:    14 bands initialized randomly with npw=  4456, for ikpt=    50
_setup2: Arith. and geom. avg. npw (full set) are    4435.259    4435.198
 initro: for itypat=  1, take pseudo charge density from pp file
 initro: for itypat=  2, take pseudo charge density from pp file

================================================================================

 getcut: wavevector=  0.0000  0.0000  0.0000  ngfft=  27  27 135
         ecut(hartree)=     20.000   => boxcut(ratio)=   2.01886

 1/G**2 cut-off applied in the following step : cutoff-mode = CRYSTAL

 1/G**2 cut-off applied in the following step : cutoff-mode = CRYSTAL

 1/G**2 cut-off applied in the following step : cutoff-mode = CRYSTAL

--- !WARNING
src_file: m_drivexc.F90
src_line: 711
message: |
    Density went too small (lower than xc_denpos) at 12208 points
    and was set to xc_denpos =   1.00E-14. Lowest was  -0.34E-05.
    This might be due to (1) too low boxcut or (2) too low ecut for
     pseudopotential core charge, or (3) too low ecut for estimated initial density.
     Possible workarounds : increase ecut, or define the input variable densty,
     with a value larger than the guess for the decay length, or initialize your,
     density with a preliminary LDA or GGA-PBE if you are using a more exotic xc functional.
...


 ITER STEP NUMBER     1
 Max number of non-self-consistent loops: 2
 Total charge density [el/Bohr^3]
      Maximum=    8.1272E-01  at reduced coord.    0.1111    0.8519    0.0000
      Minimum=    7.7597E-05  at reduced coord.    0.0000    0.0000    0.3481
   Integrated=    2.6000E+01

 1/G**2 cut-off applied in the following step : cutoff-mode = CRYSTAL
 ETOT  1  -91.709963691961    -9.171E+01 6.278E-02 3.554E+03
 scprqt: <Vxc>= -1.9017248E-01 hartree

 Simple mixing update:
  residual square of the potential:    428.65233058161522
{SCF_istep: 1 , Vnl|psi>: 71120 , wall_time: ' 03:05 [minutes] '} <<< TIME

 ITER STEP NUMBER     2
 Max number of non-self-consistent loops: 2
 Total charge density [el/Bohr^3]
      Maximum=    1.1732E+00  at reduced coord.    0.8889    0.9630    0.9926
      Minimum=    1.0904E-06  at reduced coord.    0.3333    0.3333    0.4889
   Integrated=    2.6000E+01
 ETOT  2  -87.094070655933     4.616E+00 5.255E-02 4.690E+04
 scprqt: <Vxc>= -1.6041473E-01 hartree

 Pulay update with  1 previous iterations:
 mixing of old trial potential: alpha(m:m-4)=  0.238      0.762
{SCF_istep: 2 , Vnl|psi>: 70812 , wall_time: ' 03:01 [minutes] '} <<< TIME

 ITER STEP NUMBER     3
 Total charge density [el/Bohr^3]
      Maximum=    9.1038E-01  at reduced coord.    0.8889    0.9630    0.9926
      Minimum=    7.0662E-07  at reduced coord.    0.6296    0.4815    0.4370
   Integrated=    2.6000E+01
 ETOT  3  -92.289349357960    -5.195E+00 1.008E-01 6.405E+02
 scprqt: <Vxc>= -1.6864323E-01 hartree

 Pulay update with  2 previous iterations:
 mixing of old trial potential: alpha(m:m-4)=  0.176      0.184      0.640
{SCF_istep: 3 , Vnl|psi>: 34052 , wall_time: ' 01:30 [minutes] '} <<< TIME

 ITER STEP NUMBER     4
 Total charge density [el/Bohr^3]
      Maximum=    9.0371E-01  at reduced coord.    0.8889    0.9630    0.9926
      Minimum=    1.7383E-07  at reduced coord.    0.4074    0.0741    0.4963
   Integrated=    2.6000E+01
 ETOT  4  -92.334239206905    -4.489E-02 2.271E-02 4.429E+02
 scprqt: <Vxc>= -1.6718939E-01 hartree

 Pulay update with  3 previous iterations:
 mixing of old trial potential: alpha(m:m-4)=  0.127      0.167      0.150      0.556
{SCF_istep: 4 , Vnl|psi>: 35552 , wall_time: ' 01:34 [minutes] '} <<< TIME

 ITER STEP NUMBER     5
 Total charge density [el/Bohr^3]
      Maximum=    9.0107E-01  at reduced coord.    0.8889    0.9630    0.9926
      Minimum=    1.3748E-07  at reduced coord.    0.4074    0.0741    0.4963
   Integrated=    2.6000E+01
 ETOT  5  -92.342523285781    -8.284E-03 3.937E-03 3.370E+02
 scprqt: <Vxc>= -1.6704901E-01 hartree

 Pulay update with  4 previous iterations:
 mixing of old trial potential: alpha(m:m-4)=  0.133      0.583E-01  0.170      0.132      0.506
{SCF_istep: 5 , Vnl|psi>: 35043 , wall_time: ' 01:33 [minutes] '} <<< TIME

 ITER STEP NUMBER     6
 Total charge density [el/Bohr^3]
      Maximum=    9.0058E-01  at reduced coord.    0.8889    0.9630    0.9926
      Minimum=    1.3190E-07  at reduced coord.    0.5926    0.4815    0.4963
   Integrated=    2.6000E+01
 ETOT  6  -92.345260947375    -2.738E-03 4.748E-03 2.894E+02
 scprqt: <Vxc>= -1.6702753E-01 hartree

 Pulay update with  5 previous iterations:
 mixing of old trial potential: alpha(m:m-4)=  0.239     -0.564E-01  0.396E-01  0.171      0.124
{SCF_istep: 6 , Vnl|psi>: 34498 , wall_time: ' 01:32 [minutes] '} <<< TIME

 ITER STEP NUMBER     7
 Total charge density [el/Bohr^3]
      Maximum=    8.9997E-01  at reduced coord.    0.8889    0.9630    0.9926
      Minimum=    1.3084E-07  at reduced coord.    0.5926    0.4815    0.4963
   Integrated=    2.6000E+01
 ETOT  7  -92.346666120627    -1.405E-03 2.461E-03 2.680E+02
 scprqt: <Vxc>= -1.6704760E-01 hartree

 Pulay update with  6 previous iterations:
 mixing of old trial potential: alpha(m:m-4)=  0.891     -0.333     -0.318      0.355E-01  0.171
{SCF_istep: 7 , Vnl|psi>: 35560 , wall_time: ' 01:35 [minutes] '} <<< TIME

 ITER STEP NUMBER     8
 Total charge density [el/Bohr^3]
      Maximum=    8.9974E-01  at reduced coord.    0.8889    0.9630    0.0000
      Minimum=    1.3072E-07  at reduced coord.    0.5926    0.4815    0.4963
   Integrated=    2.6000E+01
 ETOT  8  -92.348146572818    -1.480E-03 3.054E-03 2.396E+02
 scprqt: <Vxc>= -1.6707900E-01 hartree

 Pulay update with  7 previous iterations:
 mixing of old trial potential: alpha(m:m-4)=   3.39      0.320      -2.01     -0.996     -0.960E-01
{SCF_istep: 8 , Vnl|psi>: 35560 , wall_time: ' 01:34 [minutes] '} <<< TIME

 ITER STEP NUMBER     9
 Total charge density [el/Bohr^3]
      Maximum=    8.9753E-01  at reduced coord.    0.8889    0.9630    0.0000
      Minimum=    1.3057E-07  at reduced coord.    0.5926    0.4815    0.4963
   Integrated=    2.6000E+01
 ETOT  9  -92.355695300899    -7.549E-03 2.046E-03 1.020E+02
 scprqt: <Vxc>= -1.6736542E-01 hartree

 Pulay update with  7 previous iterations:
 mixing of old trial potential: alpha(m:m-4)=  0.566       2.12       1.37      -1.61      -1.41
{SCF_istep: 9 , Vnl|psi>: 35560 , wall_time: ' 01:34 [minutes] '} <<< TIME

 ITER STEP NUMBER    10
 Total charge density [el/Bohr^3]
      Maximum=    8.9525E-01  at reduced coord.    0.8889    0.9630    0.0000
      Minimum=    1.3082E-07  at reduced coord.    0.5926    0.4815    0.4963
   Integrated=    2.6000E+01
 ETOT 10  -92.359193458754    -3.498E-03 2.037E-03 3.569E+01
 scprqt: <Vxc>= -1.6755814E-01 hartree

 Pulay update with  7 previous iterations:
 mixing of old trial potential: alpha(m:m-4)=  0.693      0.667E-01  0.498       2.08     -0.719
{SCF_istep: 10 , Vnl|psi>: 35560 , wall_time: ' 01:33 [minutes] '} <<< TIME

 ITER STEP NUMBER    11
 Total charge density [el/Bohr^3]
      Maximum=    8.8943E-01  at reduced coord.    0.8889    0.9630    0.0000
      Minimum=    1.2964E-07  at reduced coord.    0.5926    0.4815    0.4963
   Integrated=    2.6000E+01
 ETOT 11  -92.358940128179     2.533E-04 1.078E-03 1.963E+01
 scprqt: <Vxc>= -1.6782067E-01 hartree

 Pulay update with  7 previous iterations:
 mixing of old trial potential: alpha(m:m-4)=  0.369      0.387     -0.461E-01  0.499       1.88
{SCF_istep: 11 , Vnl|psi>: 34115 , wall_time: ' 01:30 [minutes] '} <<< TIME

 ITER STEP NUMBER    12
 Total charge density [el/Bohr^3]
      Maximum=    8.9691E-01  at reduced coord.    0.8889    0.9630    0.0000
      Minimum=    1.3087E-07  at reduced coord.    0.5926    0.4815    0.4963
   Integrated=    2.6000E+01
 ETOT 12  -92.357895352288     1.045E-03 8.988E-04 4.753E+01
 scprqt: <Vxc>= -1.6766003E-01 hartree

 Pulay update with  7 previous iterations:
 mixing of old trial potential: alpha(m:m-4)=  0.442      0.547     -0.602E-01 -0.470      0.298
{SCF_istep: 12 , Vnl|psi>: 34315 , wall_time: ' 01:32 [minutes] '} <<< TIME

 ITER STEP NUMBER    13
 Total charge density [el/Bohr^3]
      Maximum=    8.9080E-01  at reduced coord.    0.8889    0.9630    0.0000
      Minimum=    1.2995E-07  at reduced coord.    0.5926    0.4815    0.4963
   Integrated=    2.6000E+01
 ETOT 13  -92.359284879420    -1.390E-03 4.196E-04 8.899E+00
 scprqt: <Vxc>= -1.6778055E-01 hartree

 Pulay update with  7 previous iterations:
 mixing of old trial potential: alpha(m:m-4)=   1.10      0.443     -0.129      0.790E-02 -0.585
{SCF_istep: 13 , Vnl|psi>: 34138 , wall_time: ' 01:30 [minutes] '} <<< TIME

 ITER STEP NUMBER    14
 Total charge density [el/Bohr^3]
      Maximum=    8.9166E-01  at reduced coord.    0.8889    0.9630    0.0000
      Minimum=    1.2977E-07  at reduced coord.    0.5926    0.4815    0.4963
   Integrated=    2.6000E+01
 ETOT 14  -92.359571381324    -2.865E-04 4.870E-04 5.719E+00
 scprqt: <Vxc>= -1.6784760E-01 hartree

 Pulay update with  7 previous iterations:
 mixing of old trial potential: alpha(m:m-4)=  0.506      0.411      0.132     -0.390E-01  0.144
{SCF_istep: 14 , Vnl|psi>: 35560 , wall_time: ' 01:34 [minutes] '} <<< TIME

 ITER STEP NUMBER    15
 Total charge density [el/Bohr^3]
      Maximum=    8.9384E-01  at reduced coord.    0.8889    0.9630    0.0000
      Minimum=    1.3010E-07  at reduced coord.    0.5926    0.4815    0.4963
   Integrated=    2.6000E+01
 ETOT 15  -92.359529475163     4.191E-05 3.000E-04 8.616E+00
 scprqt: <Vxc>= -1.6780362E-01 hartree

 Pulay update with  7 previous iterations:
 mixing of old trial potential: alpha(m:m-4)=   1.04     -0.937E-01  0.101     -0.111      0.944E-01
{SCF_istep: 15 , Vnl|psi>: 34478 , wall_time: ' 01:31 [minutes] '} <<< TIME

 ITER STEP NUMBER    16
 Total charge density [el/Bohr^3]
      Maximum=    8.9304E-01  at reduced coord.    0.8889    0.9630    0.0000
      Minimum=    1.2999E-07  at reduced coord.    0.5926    0.4815    0.4963
   Integrated=    2.6000E+01
 ETOT 16  -92.359661548052    -1.321E-04 3.387E-04 4.181E+00
 scprqt: <Vxc>= -1.6788330E-01 hartree

 Pulay update with  7 previous iterations:
 mixing of old trial potential: alpha(m:m-4)=  0.664      0.622     -0.235      0.124     -0.214
{SCF_istep: 16 , Vnl|psi>: 34036 , wall_time: ' 01:30 [minutes] '} <<< TIME

 ITER STEP NUMBER    17
 Total charge density [el/Bohr^3]
      Maximum=    8.9300E-01  at reduced coord.    0.8889    0.9630    0.0000
      Minimum=    1.3001E-07  at reduced coord.    0.5926    0.4815    0.4963
   Integrated=    2.6000E+01
 ETOT 17  -92.359660324383     1.224E-06 2.051E-04 2.926E+00
 scprqt: <Vxc>= -1.6792552E-01 hartree

 Pulay update with  7 previous iterations:
 mixing of old trial potential: alpha(m:m-4)=   1.34     -0.380     -0.745E-01  0.499E-01  0.122
{SCF_istep: 17 , Vnl|psi>: 35538 , wall_time: ' 01:33 [minutes] '} <<< TIME

 ITER STEP NUMBER    18
 Total charge density [el/Bohr^3]
      Maximum=    8.9245E-01  at reduced coord.    0.8889    0.9630    0.0000
      Minimum=    1.2996E-07  at reduced coord.    0.5926    0.4815    0.4963
   Integrated=    2.6000E+01
 ETOT 18  -92.359679940766    -1.962E-05 2.284E-04 1.096E+00
 scprqt: <Vxc>= -1.6796647E-01 hartree

 At SCF step   18, etot is converged : 
  for the second time, diff in etot=  1.962E-05 < toldfe=  1.000E-04
 
 -------------------------------------------------------------------------------------------------
 Ekinetic   = :     2.953140E+01 Ha ,    8.035902E+02 eV
 Evext_l    = :    -4.754394E+02 Ha ,   -1.293736E+04 eV
 Evext_nl   = :     1.164316E+01 Ha ,    3.168266E+02 eV
 Epsp_core  = :     8.513015E-01 Ha ,    2.316509E+01 eV
 Ehartree   = :     2.172607E+02 Ha ,    5.911965E+03 eV
 Exc_ks     = :    -1.655130E+01 Ha ,   -4.503837E+02 eV
 Enn        = :     1.403444E+02 Ha ,    3.818965E+03 eV
 -------------------------------------------------------------------------------------------------
 Etot       = :    -9.235968E+01 Ha ,   -2.513235E+03 eV
 -------------------------------------------------------------------------------------------------

 Cartesian components of stress tensor (hartree/bohr^3)
  sigma(1 1)=  3.49922357E-04  sigma(3 2)=  0.00000000E+00
  sigma(2 2)=  3.49922357E-04  sigma(3 1)=  0.00000000E+00
  sigma(3 3)=  5.35006207E-04  sigma(2 1)=  0.00000000E+00


 fftdatar_write: About to write data to: o_DS1_DEN with iomode: IO_MODE_FORTRAN
 IO operation completed. cpu:  0.00 [s] , wall:  0.00 [s] <<< TIME
- Creating netcdf file WITHOUT MPI-IO support: o_DS1_GSR.nc
 Integrated electronic density in atomic spheres:
 ------------------------------------------------
 Atom  Sphere_radius  Integrated_density
    1        2.00000         10.44896343
    2        2.00000          3.85532276
    3        2.00000          3.85532276
================================================================================

 ----iterations are completed or convergence reached----


 === Gap info ===
  >>>> For spin  1
   Minimum direct gap =   1.8310 [eV], located at k-point      :  -0.3333  0.3333  0.3594
   Fundamental gap    =   1.4043 [eV], Top of valence bands at :  -0.3333  0.3333  0.2656
                                       Bottom of conduction at :  -0.1667  0.1667  0.3281
 Mean square residual over all n,k,spin=   53.425E-08; max=  22.840E-05
  -0.0833  0.0000  0.0000    1  6.80970E-06 kpt; spin; max resid(k); each band:
  3.01E-09 9.45E-09 8.65E-10 3.03E-10 5.08E-08 3.60E-08 1.41E-07 9.28E-08
  1.30E-07 6.09E-08 1.25E-07 1.59E-07 1.19E-07 6.81E-06
  -0.2500  0.0000  0.0000    1  2.23294E-07 kpt; spin; max resid(k); each band:
  2.65E-09 7.75E-09 3.12E-09 8.74E-10 5.34E-08 4.58E-08 1.37E-07 1.09E-07
  1.05E-07 8.17E-08 3.25E-08 2.23E-07 9.38E-08 1.85E-07
  -0.1667  0.0000  0.0156    1  2.19569E-07 kpt; spin; max resid(k); each band:
  2.89E-09 8.89E-09 1.80E-09 5.26E-10 5.22E-08 3.99E-08 1.39E-07 1.29E-07
  1.24E-07 1.10E-07 1.00E-07 1.08E-07 1.10E-07 2.20E-07
  -0.0833  0.0000  0.0313    1  1.08149E-05 kpt; spin; max resid(k); each band:
  3.01E-09 9.45E-09 8.63E-10 3.06E-10 5.08E-08 3.60E-08 1.41E-07 9.28E-08
  1.31E-07 6.37E-08 1.24E-07 1.60E-07 1.19E-07 1.08E-05
  -0.1667  0.0833  0.0000    1  3.01957E-07 kpt; spin; max resid(k); each band:
  2.61E-09 8.37E-09 2.56E-09 8.81E-10 5.31E-08 4.35E-08 1.37E-07 1.22E-07
  1.21E-07 9.99E-08 1.72E-07 8.25E-08 9.84E-08 3.02E-07
  -0.0833  0.0833  0.0156    1  1.05710E-06 kpt; spin; max resid(k); each band:
  2.90E-09 9.17E-09 1.44E-09 5.37E-10 5.19E-08 3.86E-08 1.40E-07 1.18E-07
  1.30E-07 9.46E-08 1.33E-07 1.37E-07 1.13E-07 1.06E-06
  -0.4167  0.0000  0.0000    1  3.49102E-07 kpt; spin; max resid(k); each band:
  1.96E-09 5.75E-09 5.72E-09 1.53E-09 5.69E-08 5.76E-08 8.30E-08 5.00E-08
  1.20E-07 6.48E-08 1.05E-07 1.08E-07 3.49E-07 2.03E-07
  -0.3333  0.0000  0.0156    1  3.09522E-07 kpt; spin; max resid(k); each band:
  2.32E-09 4.55E-09 6.55E-09 1.26E-09 5.49E-08 5.22E-08 1.11E-07 7.42E-08
  9.77E-08 7.06E-08 8.68E-08 9.06E-08 3.10E-07 1.64E-07
  -0.2500  0.0000  0.0313    1  2.33450E-07 kpt; spin; max resid(k); each band:
  2.65E-09 7.75E-09 3.12E-09 8.74E-10 5.34E-08 4.58E-08 1.37E-07 1.09E-07
  1.05E-07 8.23E-08 3.25E-08 2.33E-07 9.38E-08 2.15E-07
  -0.1667  0.0000  0.0469    1  2.21003E-07 kpt; spin; max resid(k); each band:
  2.89E-09 8.89E-09 1.80E-09 5.26E-10 5.22E-08 3.99E-08 1.39E-07 1.29E-07
  1.24E-07 1.10E-07 9.97E-08 1.08E-07 1.10E-07 2.21E-07
  -0.0833  0.0000  0.0625    1  3.89007E-06 kpt; spin; max resid(k); each band:
  3.01E-09 9.45E-09 8.66E-10 3.04E-10 5.08E-08 3.60E-08 1.41E-07 9.28E-08
  1.30E-07 6.21E-08 1.22E-07 1.59E-07 1.19E-07 3.89E-06
  -0.3333  0.0833  0.0000    1  3.52266E-06 kpt; spin; max resid(k); each band:
  1.75E-09 5.14E-09 6.17E-09 1.59E-09 5.60E-08 5.56E-08 9.97E-08 6.23E-08
  1.11E-07 8.59E-08 1.09E-07 1.94E-07 1.41E-07 3.52E-06
  -0.2500  0.0833  0.0156    1  2.68751E-07 kpt; spin; max resid(k); each band:
  2.18E-09 3.91E-09 7.20E-09 1.27E-09 5.44E-08 4.97E-08 1.29E-07 8.95E-08
  9.09E-08 9.09E-08 9.97E-08 2.27E-07 1.75E-07 2.69E-07
  -0.1667  0.0833  0.0313    1  3.41753E-07 kpt; spin; max resid(k); each band:
  2.61E-09 8.37E-09 2.56E-09 8.81E-10 5.31E-08 4.35E-08 1.37E-07 1.22E-07
  1.21E-07 9.96E-08 1.83E-07 8.26E-08 9.85E-08 3.42E-07
  -0.0833  0.0833  0.0469    1  1.21417E-06 kpt; spin; max resid(k); each band:
  2.90E-09 9.17E-09 1.44E-09 5.37E-10 5.19E-08 3.86E-08 1.40E-07 1.18E-07
  1.30E-07 9.49E-08 1.34E-07 1.37E-07 1.13E-07 1.21E-06
  -0.2500  0.1667  0.0000    1  2.35422E-07 kpt; spin; max resid(k); each band:
  1.82E-09 4.64E-09 6.70E-09 1.74E-09 5.58E-08 5.43E-08 1.11E-07 7.54E-08
  9.65E-08 9.03E-08 1.60E-07 1.04E-07 1.17E-07 2.35E-07
  -0.1667  0.1667  0.0156    1  1.92055E-07 kpt; spin; max resid(k); each band:
  2.16E-09 4.37E-09 7.49E-09 1.32E-09 5.43E-08 4.87E-08 1.35E-07 9.84E-08
  1.04E-07 6.70E-08 1.76E-07 7.78E-08 1.26E-07 1.92E-07
   0.5000  0.0000  0.0156    1  1.13940E-05 kpt; spin; max resid(k); each band:
  1.77E-09 6.27E-09 5.42E-09 1.62E-09 5.80E-08 5.97E-08 7.12E-08 3.74E-08
  1.24E-07 6.34E-08 1.07E-07 1.11E-07 1.91E-07 1.14E-05
  -0.4167  0.0000  0.0313    1  1.04563E-05 kpt; spin; max resid(k); each band:
  1.92E-09 5.74E-09 5.72E-09 1.54E-09 5.69E-08 5.76E-08 8.36E-08 5.00E-08
  1.19E-07 6.03E-08 1.05E-07 1.09E-07 3.32E-07 1.05E-05
  -0.3333  0.0000  0.0469    1  3.35989E-07 kpt; spin; max resid(k); each band:
  2.32E-09 4.55E-09 6.55E-09 1.26E-09 5.49E-08 5.22E-08 1.11E-07 7.42E-08
  9.77E-08 6.76E-08 8.67E-08 9.06E-08 3.36E-07 1.29E-07
  -0.2500  0.0000  0.0625    1  2.33889E-07 kpt; spin; max resid(k); each band:
  2.65E-09 7.75E-09 3.13E-09 8.74E-10 5.34E-08 4.58E-08 1.37E-07 1.09E-07
  1.05E-07 8.15E-08 3.25E-08 2.34E-07 9.38E-08 1.57E-07
  -0.1667  0.0000  0.0781    1  2.33162E-07 kpt; spin; max resid(k); each band:
  2.89E-09 8.89E-09 1.80E-09 5.26E-10 5.22E-08 3.99E-08 1.39E-07 1.29E-07
  1.24E-07 1.13E-07 9.90E-08 1.08E-07 1.10E-07 2.33E-07
  -0.0833  0.0000  0.0938    1  4.58122E-05 kpt; spin; max resid(k); each band:
  3.01E-09 9.45E-09 8.47E-10 3.22E-10 5.08E-08 3.61E-08 1.41E-07 9.29E-08
  1.33E-07 6.85E-08 1.23E-07 1.59E-07 1.20E-07 4.58E-05
   0.5000  0.0833  0.0000    1  6.28270E-06 kpt; spin; max resid(k); each band:
  1.48E-09 5.82E-09 5.59E-09 1.76E-09 5.76E-08 5.94E-08 6.62E-08 4.31E-08
  1.31E-07 8.57E-08 1.05E-07 9.57E-08 1.39E-07 6.28E-06
  -0.4167  0.0833  0.0156    1  2.28399E-04 kpt; spin; max resid(k); each band:
  1.49E-09 5.88E-09 5.59E-09 1.75E-09 5.76E-08 5.94E-08 6.92E-08 4.31E-08
  1.29E-07 8.54E-08 1.05E-07 1.07E-07 1.33E-07 2.28E-04
  -0.3333  0.0833  0.0313    1  4.68253E-06 kpt; spin; max resid(k); each band:
  1.75E-09 5.14E-09 6.17E-09 1.59E-09 5.60E-08 5.56E-08 9.97E-08 6.22E-08
  1.11E-07 8.53E-08 1.09E-07 1.94E-07 1.42E-07 4.68E-06
  -0.2500  0.0833  0.0469    1  4.44984E-07 kpt; spin; max resid(k); each band:
  2.18E-09 3.91E-09 7.20E-09 1.27E-09 5.44E-08 4.97E-08 1.29E-07 8.95E-08
  9.08E-08 9.09E-08 9.99E-08 2.31E-07 1.80E-07 4.45E-07
  -0.1667  0.0833  0.0625    1  3.12160E-07 kpt; spin; max resid(k); each band:
  2.61E-09 8.37E-09 2.56E-09 8.81E-10 5.31E-08 4.35E-08 1.37E-07 1.22E-07
  1.21E-07 1.00E-07 1.93E-07 8.26E-08 9.89E-08 3.12E-07
  -0.0833  0.0833  0.0781    1  1.28656E-06 kpt; spin; max resid(k); each band:
  2.90E-09 9.16E-09 1.44E-09 5.38E-10 5.19E-08 3.86E-08 1.40E-07 1.18E-07
  1.30E-07 9.53E-08 1.34E-07 1.37E-07 1.13E-07 1.29E-06
  -0.4167  0.1667  0.0000    1  1.28663E-06 kpt; spin; max resid(k); each band:
  1.88E-09 5.38E-09 5.70E-09 2.21E-09 5.88E-08 6.04E-08 5.72E-08 4.45E-08
  1.49E-07 9.33E-08 6.25E-08 1.00E-07 1.47E-07 1.29E-06
  -0.3333  0.1667  0.0156    1  7.27714E-07 kpt; spin; max resid(k); each band:
  1.72E-09 5.25E-09 5.97E-09 2.08E-09 5.77E-08 5.88E-08 7.78E-08 5.27E-08
  1.35E-07 8.88E-08 9.55E-08 1.05E-07 1.15E-07 7.28E-07
  -0.2500  0.1667  0.0313    1  1.59325E-07 kpt; spin; max resid(k); each band:
  1.82E-09 4.64E-09 6.70E-09 1.74E-09 5.58E-08 5.43E-08 1.11E-07 7.53E-08
  9.64E-08 9.02E-08 1.59E-07 1.04E-07 1.16E-07 1.45E-07
  -0.1667  0.1667  0.0469    1  1.66971E-07 kpt; spin; max resid(k); each band:
  2.16E-09 5.62E-09 6.99E-09 1.32E-09 5.43E-08 4.88E-08 1.35E-07 9.84E-08
  1.04E-07 6.86E-08 1.67E-07 7.80E-08 1.24E-07 1.53E-07
  -0.3333  0.2500  0.0000    1  5.43941E-07 kpt; spin; max resid(k); each band:
  2.18E-09 4.80E-09 2.73E-09 5.85E-09 6.08E-08 5.95E-08 3.71E-08 5.70E-08
  1.29E-07 6.85E-08 8.01E-08 1.06E-07 8.82E-08 5.44E-07
  -0.2500  0.2500  0.0156    1  3.20058E-07 kpt; spin; max resid(k); each band:
  1.80E-09 4.94E-09 6.19E-09 2.29E-09 5.77E-08 5.84E-08 8.40E-08 5.78E-08
  1.33E-07 8.09E-08 9.20E-08 1.04E-07 9.06E-08 3.20E-07
   0.5000  0.0000  0.0469    1  1.39448E-04 kpt; spin; max resid(k); each band:
  1.30E-09 6.16E-09 5.42E-09 1.63E-09 5.75E-08 5.97E-08 6.20E-08 3.73E-08
  1.24E-07 5.98E-08 1.07E-07 1.17E-07 5.89E-08 1.39E-04
  -0.4167  0.0000  0.0625    1  3.53585E-07 kpt; spin; max resid(k); each band:
  1.96E-09 5.75E-09 5.72E-09 1.53E-09 5.69E-08 5.76E-08 8.29E-08 5.00E-08
  1.20E-07 6.38E-08 1.05E-07 1.08E-07 3.54E-07 2.99E-07
  -0.3333  0.0000  0.0781    1  2.69934E-07 kpt; spin; max resid(k); each band:
  2.32E-09 4.55E-09 6.55E-09 1.26E-09 5.49E-08 5.22E-08 1.11E-07 7.42E-08
  9.77E-08 6.83E-08 8.67E-08 9.06E-08 2.70E-07 1.74E-07
  -0.2500  0.0000  0.0938    1  2.31427E-07 kpt; spin; max resid(k); each band:
  2.65E-09 7.75E-09 3.12E-09 8.75E-10 5.34E-08 4.58E-08 1.37E-07 1.09E-07
  1.05E-07 8.21E-08 3.25E-08 2.31E-07 9.38E-08 1.68E-07
  -0.1667  0.0000  0.1094    1  3.46963E-07 kpt; spin; max resid(k); each band:
  2.89E-09 8.89E-09 1.80E-09 5.26E-10 5.22E-08 3.99E-08 1.39E-07 1.29E-07
  1.24E-07 1.10E-07 1.00E-07 1.08E-07 1.10E-07 3.47E-07
  -0.0833  0.0000  0.1250    1  2.99131E-05 kpt; spin; max resid(k); each band:
  3.01E-09 9.45E-09 8.54E-10 3.10E-10 5.08E-08 3.61E-08 1.41E-07 9.30E-08
  1.33E-07 6.62E-08 1.24E-07 1.60E-07 1.20E-07 2.99E-05
   0.3333  0.0833  0.0000    1  4.07413E-07 kpt; spin; max resid(k); each band:
  2.18E-09 3.91E-09 7.20E-09 1.27E-09 5.44E-08 4.97E-08 1.29E-07 8.95E-08
  9.08E-08 9.08E-08 9.99E-08 2.26E-07 1.78E-07 4.07E-07
   0.4167  0.0833  0.0156    1  3.46356E-06 kpt; spin; max resid(k); each band:
  1.71E-09 5.14E-09 6.17E-09 1.59E-09 5.60E-08 5.56E-08 9.98E-08 6.23E-08
  1.10E-07 8.60E-08 1.10E-07 1.90E-07 1.38E-07 3.46E-06
   0.5000  0.0833  0.0313    1  5.05091E-06 kpt; spin; max resid(k); each band:
  1.47E-09 5.83E-09 5.59E-09 1.76E-09 5.76E-08 5.94E-08 6.64E-08 4.31E-08
  1.31E-07 8.56E-08 1.05E-07 9.83E-08 1.38E-07 5.05E-06
  -0.4167  0.0833  0.0469    1  5.58802E-06 kpt; spin; max resid(k); each band:
  1.46E-09 5.84E-09 5.59E-09 1.76E-09 5.76E-08 5.94E-08 6.63E-08 4.31E-08
  1.31E-07 8.47E-08 1.05E-07 9.96E-08 1.37E-07 5.59E-06
  -0.3333  0.0833  0.0625    1  5.12519E-06 kpt; spin; max resid(k); each band:
  1.75E-09 5.14E-09 6.17E-09 1.59E-09 5.60E-08 5.56E-08 9.97E-08 6.23E-08
  1.11E-07 8.52E-08 1.08E-07 1.94E-07 1.42E-07 5.13E-06
  -0.2500  0.0833  0.0781    1  2.67475E-07 kpt; spin; max resid(k); each band:
  2.18E-09 3.92E-09 7.20E-09 1.27E-09 5.44E-08 4.97E-08 1.29E-07 8.96E-08
  9.08E-08 9.07E-08 9.98E-08 2.26E-07 1.82E-07 2.67E-07
  -0.1667  0.0833  0.0938    1  3.69545E-07 kpt; spin; max resid(k); each band:
  2.61E-09 8.37E-09 2.56E-09 8.81E-10 5.31E-08 4.35E-08 1.37E-07 1.22E-07
  1.21E-07 1.00E-07 1.85E-07 8.26E-08 9.88E-08 3.70E-07
  -0.0833  0.0833  0.1094    1  7.41383E-05 kpt; spin; max resid(k); each band:
  2.90E-09 9.16E-09 1.44E-09 5.34E-10 5.19E-08 3.86E-08 1.40E-07 1.19E-07
  1.33E-07 9.45E-08 1.30E-07 1.33E-07 1.14E-07 7.41E-05
  -0.4167  0.1667  0.0313    1  6.29613E-07 kpt; spin; max resid(k); each band:
  1.88E-09 5.38E-09 5.70E-09 2.21E-09 5.88E-08 6.04E-08 5.71E-08 4.45E-08
  1.48E-07 9.28E-08 6.26E-08 1.00E-07 1.39E-07 6.30E-07
 outwf : prtvol=0 or 1, do not print more k-points.


   outwf: writing wavefunctions to: o_DS1_WFK with iomode: IO_MODE_FORTRAN_MASTER
 WFK output completed. cpu:  1.98 [s] , wall:  2.35 [s] <<< TIME
 prteigrs : about to open file o_DS1_EIG
 Fermi (or HOMO) energy (hartree) =  -0.04114   Average Vxc (hartree)=  -0.16797
 Eigenvalues (hartree) for nkpt= 508  k points:
 kpt#   1, nband= 14, wtk=  0.00087, kpt= -0.0833  0.0000  0.0000 (reduced coord)
  -2.28132   -1.33039   -1.32279   -1.32197   -0.54110   -0.51052   -0.23037   -0.12661
  -0.12141   -0.10874   -0.08346   -0.07755   -0.06080    0.04051
 kpt#   2, nband= 14, wtk=  0.00087, kpt= -0.2500  0.0000  0.0000 (reduced coord)
  -2.28119   -1.32942   -1.32844   -1.32347   -0.51579   -0.49646   -0.20628   -0.16790
  -0.16420   -0.11252   -0.09978   -0.08566   -0.07412    0.01838
 kpt#   3, nband= 14, wtk=  0.00260, kpt= -0.1667  0.0000  0.0156 (reduced coord)
  -2.28141   -1.33004   -1.32538   -1.32256   -0.53097   -0.50487   -0.21833   -0.14361
  -0.14291   -0.09885   -0.09715   -0.08478   -0.06460    0.02317
 kpt#   4, nband= 14, wtk=  0.00174, kpt= -0.0833  0.0000  0.0313 (reduced coord)
  -2.28130   -1.33037   -1.32278   -1.32196   -0.54110   -0.51052   -0.23037   -0.12660
  -0.12141   -0.10874   -0.08345   -0.07755   -0.06080    0.04053
 kpt#   5, nband= 14, wtk=  0.00174, kpt= -0.1667  0.0833  0.0000 (reduced coord)
  -2.28133   -1.32971   -1.32712   -1.32337   -0.52157   -0.49963   -0.20885   -0.15919
  -0.15282   -0.12064   -0.09365   -0.08279   -0.06899    0.01576
 kpt#   6, nband= 14, wtk=  0.00087, kpt= -0.0833  0.0833  0.0156 (reduced coord)
  -2.28139   -1.33016   -1.32445   -1.32250   -0.53426   -0.50670   -0.22197   -0.13709
  -0.13669   -0.10240   -0.09840   -0.07678   -0.06285    0.02710
 kpt#   7, nband= 14, wtk=  0.00087, kpt= -0.4167  0.0000  0.0000 (reduced coord)
  -2.28090   -1.33400   -1.32850   -1.32469   -0.48383   -0.47935   -0.23271   -0.20581
  -0.17803   -0.13385   -0.11978   -0.07281   -0.06731    0.04199
 kpt#   8, nband= 14, wtk=  0.00260, kpt= -0.3333  0.0000  0.0156 (reduced coord)
  -2.28092   -1.33155   -1.32886   -1.32418   -0.49849   -0.48706   -0.21417   -0.18737
  -0.17671   -0.12545   -0.11267   -0.07909   -0.07397    0.02738
 kpt#   9, nband= 14, wtk=  0.00174, kpt= -0.2500  0.0000  0.0313 (reduced coord)
  -2.28122   -1.32946   -1.32844   -1.32348   -0.51579   -0.49646   -0.20628   -0.16790
  -0.16420   -0.11252   -0.09978   -0.08566   -0.07412    0.01838
 kpt#  10, nband= 14, wtk=  0.00260, kpt= -0.1667  0.0000  0.0469 (reduced coord)
  -2.28141   -1.33004   -1.32538   -1.32256   -0.53097   -0.50487   -0.21833   -0.14361
  -0.14291   -0.09885   -0.09715   -0.08478   -0.06460    0.02317
 kpt#  11, nband= 14, wtk=  0.00174, kpt= -0.0833  0.0000  0.0625 (reduced coord)
  -2.28136   -1.33042   -1.32279   -1.32200   -0.54110   -0.51052   -0.23037   -0.12661
  -0.12142   -0.10874   -0.08346   -0.07755   -0.06081    0.04047
 kpt#  12, nband= 14, wtk=  0.00174, kpt= -0.3333  0.0833  0.0000 (reduced coord)
  -2.28089   -1.33275   -1.32865   -1.32496   -0.48889   -0.48184   -0.22163   -0.19743
  -0.17551   -0.14144   -0.10992   -0.09284   -0.06340    0.02592
 kpt#  13, nband= 14, wtk=  0.00174, kpt= -0.2500  0.0833  0.0156 (reduced coord)
  -2.28096   -1.33002   -1.32909   -1.32421   -0.50520   -0.49061   -0.20522   -0.17479
  -0.17447   -0.13584   -0.09611   -0.09234   -0.07011    0.01583
 kpt#  14, nband= 14, wtk=  0.00347, kpt= -0.1667  0.0833  0.0313 (reduced coord)
  -2.28136   -1.32974   -1.32713   -1.32337   -0.52157   -0.49964   -0.20885   -0.15919
  -0.15283   -0.12064   -0.09365   -0.08279   -0.06899    0.01576
 kpt#  15, nband= 14, wtk=  0.00087, kpt= -0.0833  0.0833  0.0469 (reduced coord)
  -2.28144   -1.33017   -1.32447   -1.32253   -0.53426   -0.50670   -0.22197   -0.13709
  -0.13669   -0.10240   -0.09840   -0.07678   -0.06285    0.02709
 kpt#  16, nband= 14, wtk=  0.00174, kpt= -0.2500  0.1667  0.0000 (reduced coord)
  -2.28087   -1.33148   -1.32862   -1.32576   -0.49186   -0.48319   -0.20982   -0.18740
  -0.17125   -0.15532   -0.11397   -0.09875   -0.06341    0.01675
 kpt#  17, nband= 14, wtk=  0.00260, kpt= -0.1667  0.1667  0.0156 (reduced coord)
  -2.28105   -1.32929   -1.32913   -1.32456   -0.50758   -0.49186   -0.20133   -0.17214
  -0.16384   -0.14838   -0.10022   -0.08622   -0.06848    0.01047
 kpt#  18, nband= 14, wtk=  0.00130, kpt=  0.5000  0.0000  0.0156 (reduced coord)
  -2.28062   -1.33474   -1.32835   -1.32467   -0.47786   -0.47631   -0.24071   -0.21284
  -0.17929   -0.13675   -0.12194   -0.06768   -0.06542    0.05017
 kpt#  19, nband= 14, wtk=  0.00174, kpt= -0.4167  0.0000  0.0313 (reduced coord)
  -2.28085   -1.33398   -1.32846   -1.32468   -0.48383   -0.47935   -0.23270   -0.20581
  -0.17803   -0.13385   -0.11978   -0.07281   -0.06731    0.04162
 kpt#  20, nband= 14, wtk=  0.00260, kpt= -0.3333  0.0000  0.0469 (reduced coord)
  -2.28090   -1.33154   -1.32884   -1.32418   -0.49848   -0.48706   -0.21417   -0.18737
  -0.17670   -0.12545   -0.11267   -0.07909   -0.07397    0.02738
 kpt#  21, nband= 14, wtk=  0.00174, kpt= -0.2500  0.0000  0.0625 (reduced coord)
  -2.28120   -1.32944   -1.32844   -1.32347   -0.51579   -0.49646   -0.20628   -0.16790
  -0.16420   -0.11252   -0.09978   -0.08566   -0.07412    0.01838
 kpt#  22, nband= 14, wtk=  0.00260, kpt= -0.1667  0.0000  0.0781 (reduced coord)
  -2.28141   -1.33003   -1.32537   -1.32258   -0.53097   -0.50487   -0.21833   -0.14361
  -0.14291   -0.09885   -0.09716   -0.08477   -0.06460    0.02317
 kpt#  23, nband= 14, wtk=  0.00174, kpt= -0.0833  0.0000  0.0938 (reduced coord)
  -2.28134   -1.33040   -1.32279   -1.32199   -0.54110   -0.51052   -0.23037   -0.12660
  -0.12142   -0.10874   -0.08346   -0.07755   -0.06080    0.04091
 kpt#  24, nband= 14, wtk=  0.00174, kpt=  0.5000  0.0833  0.0000 (reduced coord)
  -2.28090   -1.33438   -1.32839   -1.32539   -0.47819   -0.47624   -0.23528   -0.21130
  -0.17742   -0.14197   -0.11905   -0.08997   -0.05669    0.03674
 kpt#  25, nband= 14, wtk=  0.00174, kpt= -0.4167  0.0833  0.0156 (reduced coord)
  -2.28090   -1.33439   -1.32838   -1.32539   -0.47819   -0.47624   -0.23528   -0.21130
  -0.17742   -0.14197   -0.11905   -0.08997   -0.05669    0.03819
 kpt#  26, nband= 14, wtk=  0.00347, kpt= -0.3333  0.0833  0.0313 (reduced coord)
  -2.28083   -1.33274   -1.32860   -1.32493   -0.48889   -0.48184   -0.22163   -0.19742
  -0.17550   -0.14144   -0.10991   -0.09283   -0.06339    0.02594
 kpt#  27, nband= 14, wtk=  0.00174, kpt= -0.2500  0.0833  0.0469 (reduced coord)
  -2.28099   -1.33002   -1.32912   -1.32422   -0.50519   -0.49062   -0.20522   -0.17479
  -0.17447   -0.13584   -0.09611   -0.09234   -0.07011    0.01583
 kpt#  28, nband= 14, wtk=  0.00347, kpt= -0.1667  0.0833  0.0625 (reduced coord)
  -2.28133   -1.32972   -1.32713   -1.32335   -0.52157   -0.49963   -0.20885   -0.15919
  -0.15283   -0.12063   -0.09365   -0.08279   -0.06899    0.01576
 kpt#  29, nband= 14, wtk=  0.00087, kpt= -0.0833  0.0833  0.0781 (reduced coord)
  -2.28150   -1.33020   -1.32449   -1.32256   -0.53426   -0.50670   -0.22198   -0.13710
  -0.13670   -0.10240   -0.09841   -0.07678   -0.06286    0.02708
 kpt#  30, nband= 14, wtk=  0.00087, kpt= -0.4167  0.1667  0.0000 (reduced coord)
  -2.28092   -1.33388   -1.32820   -1.32698   -0.47360   -0.47331   -0.22723   -0.21491
  -0.17443   -0.14882   -0.12148   -0.12091   -0.05020    0.03457
 kpt#  31, nband= 14, wtk=  0.00521, kpt= -0.3333  0.1667  0.0156 (reduced coord)
  -2.28095   -1.33324   -1.32831   -1.32672   -0.47881   -0.47610   -0.22208   -0.20749
  -0.17218   -0.15223   -0.12050   -0.11337   -0.05540    0.02915
 kpt#  32, nband= 14, wtk=  0.00347, kpt= -0.2500  0.1667  0.0313 (reduced coord)
  -2.28086   -1.33146   -1.32863   -1.32576   -0.49186   -0.48319   -0.20982   -0.18740
  -0.17125   -0.15532   -0.11397   -0.09875   -0.06340    0.01676
 kpt#  33, nband= 14, wtk=  0.00260, kpt= -0.1667  0.1667  0.0469 (reduced coord)
  -2.28110   -1.32929   -1.32920   -1.32455   -0.50759   -0.49187   -0.20133   -0.17215
  -0.16385   -0.14839   -0.10023   -0.08622   -0.06849    0.01047
 kpt#  34, nband= 14, wtk=  0.00174, kpt= -0.3333  0.2500  0.0000 (reduced coord)
  -2.28099   -1.33268   -1.32896   -1.32804   -0.47151   -0.47112   -0.21696   -0.21287
  -0.17066   -0.15181   -0.15161   -0.12317   -0.04652    0.02934
 kpt#  35, nband= 14, wtk=  0.00087, kpt= -0.2500  0.2500  0.0156 (reduced coord)
  -2.28107   -1.33248   -1.32836   -1.32762   -0.47911   -0.47603   -0.21355   -0.20505
  -0.16655   -0.15766   -0.13902   -0.11040   -0.05588    0.02550
 kpt#  36, nband= 14, wtk=  0.00130, kpt=  0.5000  0.0000  0.0469 (reduced coord)
  -2.28060   -1.33474   -1.32832   -1.32467   -0.47786   -0.47631   -0.24071   -0.21284
  -0.17929   -0.13675   -0.12193   -0.06768   -0.06542    0.04258
 kpt#  37, nband= 14, wtk=  0.00174, kpt= -0.4167  0.0000  0.0625 (reduced coord)
  -2.28089   -1.33400   -1.32848   -1.32469   -0.48383   -0.47935   -0.23271   -0.20581
  -0.17803   -0.13385   -0.11978   -0.07281   -0.06731    0.04199
 kpt#  38, nband= 14, wtk=  0.00260, kpt= -0.3333  0.0000  0.0781 (reduced coord)
  -2.28086   -1.33154   -1.32881   -1.32416   -0.49848   -0.48706   -0.21417   -0.18737
  -0.17670   -0.12544   -0.11267   -0.07908   -0.07397    0.02739
 kpt#  39, nband= 14, wtk=  0.00174, kpt= -0.2500  0.0000  0.0938 (reduced coord)
  -2.28121   -1.32945   -1.32842   -1.32348   -0.51579   -0.49646   -0.20628   -0.16790
  -0.16420   -0.11253   -0.09978   -0.08567   -0.07412    0.01838
 kpt#  40, nband= 14, wtk=  0.00260, kpt= -0.1667  0.0000  0.1094 (reduced coord)
  -2.28144   -1.33003   -1.32538   -1.32262   -0.53097   -0.50487   -0.21833   -0.14362
  -0.14291   -0.09885   -0.09716   -0.08477   -0.06460    0.02317
 kpt#  41, nband= 14, wtk=  0.00174, kpt= -0.0833  0.0000  0.1250 (reduced coord)
  -2.28141   -1.33046   -1.32282   -1.32200   -0.54110   -0.51052   -0.23038   -0.12661
  -0.12142   -0.10874   -0.08346   -0.07756   -0.06081    0.04075
 kpt#  42, nband= 14, wtk=  0.00174, kpt=  0.3333  0.0833  0.0000 (reduced coord)
  -2.28097   -1.33002   -1.32910   -1.32422   -0.50520   -0.49061   -0.20522   -0.17479
  -0.17447   -0.13584   -0.09611   -0.09234   -0.07011    0.01583
 kpt#  43, nband= 14, wtk=  0.00174, kpt=  0.4167  0.0833  0.0156 (reduced coord)
  -2.28091   -1.33276   -1.32865   -1.32496   -0.48889   -0.48184   -0.22163   -0.19743
  -0.17551   -0.14144   -0.10992   -0.09284   -0.06340    0.02592
 kpt#  44, nband= 14, wtk=  0.00347, kpt=  0.5000  0.0833  0.0313 (reduced coord)
  -2.28089   -1.33438   -1.32839   -1.32538   -0.47819   -0.47624   -0.23528   -0.21130
  -0.17742   -0.14197   -0.11905   -0.08996   -0.05669    0.03674
 kpt#  45, nband= 14, wtk=  0.00174, kpt= -0.4167  0.0833  0.0469 (reduced coord)
  -2.28086   -1.33437   -1.32836   -1.32537   -0.47819   -0.47624   -0.23528   -0.21129
  -0.17742   -0.14197   -0.11904   -0.08996   -0.05668    0.03674
 kpt#  46, nband= 14, wtk=  0.00347, kpt= -0.3333  0.0833  0.0625 (reduced coord)
  -2.28086   -1.33276   -1.32863   -1.32493   -0.48889   -0.48184   -0.22163   -0.19743
  -0.17550   -0.14144   -0.10991   -0.09283   -0.06340    0.02594
 kpt#  47, nband= 14, wtk=  0.00174, kpt= -0.2500  0.0833  0.0781 (reduced coord)
  -2.28095   -1.33000   -1.32909   -1.32421   -0.50519   -0.49061   -0.20522   -0.17479
  -0.17447   -0.13584   -0.09611   -0.09234   -0.07011    0.01583
 kpt#  48, nband= 14, wtk=  0.00347, kpt= -0.1667  0.0833  0.0938 (reduced coord)
  -2.28134   -1.32971   -1.32713   -1.32336   -0.52157   -0.49963   -0.20885   -0.15919
  -0.15283   -0.12063   -0.09365   -0.08279   -0.06899    0.01576
 kpt#  49, nband= 14, wtk=  0.00087, kpt= -0.0833  0.0833  0.1094 (reduced coord)
  -2.28148   -1.33020   -1.32449   -1.32253   -0.53426   -0.50670   -0.22198   -0.13710
  -0.13669   -0.10240   -0.09841   -0.07678   -0.06285    0.02745
 kpt#  50, nband= 14, wtk=  0.00174, kpt= -0.4167  0.1667  0.0313 (reduced coord)
  -2.28088   -1.33386   -1.32815   -1.32700   -0.47360   -0.47331   -0.22723   -0.21491
  -0.17443   -0.14882   -0.12147   -0.12091   -0.05019    0.03459
 prteigrs : prtvol=0 or 1, do not print more k-points.

 Total charge density [el/Bohr^3]
      Maximum=    8.9245E-01  at reduced coord.    0.8889    0.9630    0.0000
 Next maximum=    8.9245E-01  at reduced coord.    0.1481    0.9630    0.0000
      Minimum=    1.2996E-07  at reduced coord.    0.5926    0.4815    0.4963
 Next minimum=    1.2996E-07  at reduced coord.    0.9259    0.4815    0.4963
   Integrated=    2.6000E+01

 Cartesian components of stress tensor (hartree/bohr^3)
  sigma(1 1)=  3.49922357E-04  sigma(3 2)=  0.00000000E+00
  sigma(2 2)=  3.49922357E-04  sigma(3 1)=  0.00000000E+00
  sigma(3 3)=  5.35006207E-04  sigma(2 1)=  0.00000000E+00

-Cartesian components of stress tensor (GPa)         [Pressure= -1.2110E+01 GPa]
- sigma(1 1)=  1.02950694E+01  sigma(3 2)=  0.00000000E+00
- sigma(2 2)=  1.02950694E+01  sigma(3 1)=  0.00000000E+00
- sigma(3 3)=  1.57404234E+01  sigma(2 1)=  0.00000000E+00

================================================================================
== DATASET  2 ==================================================================
-   mpi_nproc: 1, omp_nthreads: -1 (-1 if OMP is not activated)


--- !COMMENT
src_file: m_xgScalapack.F90
src_line: 236
message: |
    xgScalapack in auto mode
...

 mkfilename : getden/=0, take file _DEN from output of DATASET   1.


 getdim_nloc : deduce lmnmax  =  18, lnmax  =   6,
                      lmnmaxso=  18, lnmaxso=   6.
 Exchange-correlation functional for the present dataset will be:
  GGA: Perdew-Burke-Ernzerhof functional - ixc=11
 Citation for XC functional:
  J.P.Perdew, K.Burke, M.Ernzerhof, PRL 77, 3865 (1996)

 Unit cell volume ucvol=  1.0382076E+03 bohr^3
 Angles (23,13,12)=  9.00000000E+01  9.00000000E+01  6.00000000E+01 degrees

 getcut: wavevector=  0.0000  0.0000  0.0000  ngfft=  27  27 135
         ecut(hartree)=     20.000   => boxcut(ratio)=   2.01886
 symatm: atom number 1 is reached starting at atom
   1  1  1  1  1  1  1  1  1  1  1  1
 symatm: atom number 2 is reached starting at atom
   2  3  3  2  2  3  3  2  2  3  3  2
 symatm: atom number 3 is reached starting at atom
   3  2  2  3  3  2  2  3  3  2  2  3
 wfconv:    14 bands initialized randomly with npw=  2214, for ikpt=     1
 wfconv:    14 bands initialized randomly with npw=  4446, for ikpt=     2
 wfconv:    14 bands initialized randomly with npw=  4444, for ikpt=     3
 wfconv:    14 bands initialized randomly with npw=  4434, for ikpt=     4
 wfconv:    14 bands initialized randomly with npw=  4420, for ikpt=     5
 wfconv:    14 bands initialized randomly with npw=  4421, for ikpt=     6
 wfconv:    14 bands initialized randomly with npw=  4387, for ikpt=     7
 wfconv:    14 bands initialized randomly with npw=  4401, for ikpt=     8
 wfconv:    14 bands initialized randomly with npw=  4391, for ikpt=     9
 wfconv:    14 bands initialized randomly with npw=  4379, for ikpt=    10
 wfconv:    14 bands initialized randomly with npw=  2194, for ikpt=    11
 wfconv:    14 bands initialized randomly with npw=  4380, for ikpt=    12
 wfconv:    14 bands initialized randomly with npw=  4396, for ikpt=    13
 wfconv:    14 bands initialized randomly with npw=  4405, for ikpt=    14
 wfconv:    14 bands initialized randomly with npw=  4417, for ikpt=    15
 wfconv:    14 bands initialized randomly with npw=  4415, for ikpt=    16
 wfconv:    14 bands initialized randomly with npw=  4423, for ikpt=    17
 wfconv:    14 bands initialized randomly with npw=  4438, for ikpt=    18
 wfconv:    14 bands initialized randomly with npw=  4445, for ikpt=    19
 wfconv:    14 bands initialized randomly with npw=  4447, for ikpt=    20
 wfconv:    14 bands initialized randomly with npw=  2222, for ikpt=    21
 wfconv:    14 bands initialized randomly with npw=  4440, for ikpt=    22
 wfconv:    14 bands initialized randomly with npw=  4457, for ikpt=    23
 wfconv:    14 bands initialized randomly with npw=  4455, for ikpt=    24
 wfconv:    14 bands initialized randomly with npw=  4477, for ikpt=    25
 wfconv:    14 bands initialized randomly with npw=  4483, for ikpt=    26
 wfconv:    14 bands initialized randomly with npw=  4482, for ikpt=    27
 wfconv:    14 bands initialized randomly with npw=  4477, for ikpt=    28
 wfconv:    14 bands initialized randomly with npw=  4473, for ikpt=    29
 wfconv:    14 bands initialized randomly with npw=  4449, for ikpt=    30
 wfconv:    14 bands initialized randomly with npw=  4435, for ikpt=    31
 wfconv:    14 bands initialized randomly with npw=  4424, for ikpt=    32
 wfconv:    14 bands initialized randomly with npw=  4428, for ikpt=    33
 wfconv:    14 bands initialized randomly with npw=  4431, for ikpt=    34
 wfconv:    14 bands initialized randomly with npw=  4408, for ikpt=    35
 wfconv:    14 bands initialized randomly with npw=  4396, for ikpt=    36
 wfconv:    14 bands initialized randomly with npw=  4376, for ikpt=    37
 wfconv:    14 bands initialized randomly with npw=  4387, for ikpt=    38
 About to read data(r) from: o_DS1_DEN

================================================================================

          - hdr_check: checking restart file header for consistency -


          current calculation                           restart file
          -------------------                           ------------

  calculation expects a density             |  input file contains a density
. ABINIT  code version 9.6.2                |  ABINIT  code version 9.6.2
. date 20221119 bantot      532 natom    3  |  date 20221119 bantot     7112 natom    3
  nkpt      38 nsym 12 ngfft  27,  27, 135  |  nkpt     508 nsym 12 ngfft  27,  27, 135
  ntypat  2 ecut_eff  20.0000000            |  ntypat  2 ecut_eff  20.0000000
  usepaw  0                                 |  usepaw  0
  usewvl  0                                 |  usewvl  0
  rprimd:                                   |  rprimd:
     5.2221332  -3.0150000   0.0000000      |     5.2221332  -3.0150000   0.0000000
     5.2221332   3.0150000   0.0000000      |     5.2221332   3.0150000   0.0000000
     0.0000000   0.0000000  32.9700000      |     0.0000000   0.0000000  32.9700000
  symafm:                                   |  symafm:
    1  1  1  1  1  1  1  1  1  1  1  1      |    1  1  1  1  1  1  1  1  1  1  1  1
  symrel:                                   |  symrel:
    1  0  0  0  1  0  0  0  1               |    1  0  0  0  1  0  0  0  1
    1 -1  0  0 -1  0  0  0 -1               |    1 -1  0  0 -1  0  0  0 -1
    0 -1  0  1 -1  0  0  0 -1               |    0 -1  0  1 -1  0  0  0 -1
   -1  0  0 -1  1  0  0  0  1               |   -1  0  0 -1  1  0  0  0  1
   -1  1  0 -1  0  0  0  0  1               |   -1  1  0 -1  0  0  0  0  1
    0  1  0  1  0  0  0  0 -1               |    0  1  0  1  0  0  0  0 -1
    1  0  0  0  1  0  0  0 -1               |    1  0  0  0  1  0  0  0 -1
    1 -1  0  0 -1  0  0  0  1               |    1 -1  0  0 -1  0  0  0  1
    0 -1  0  1 -1  0  0  0  1               |    0 -1  0  1 -1  0  0  0  1
   -1  0  0 -1  1  0  0  0 -1               |   -1  0  0 -1  1  0  0  0 -1
   -1  1  0 -1  0  0  0  0 -1               |   -1  1  0 -1  0  0  0  0 -1
    0  1  0  1  0  0  0  0  1               |    0  1  0  1  0  0  0  0  1
  typat:                                    |  typat:
    1  2  2                                 |    1  2  2
  so_psp  :                                 |  so_psp  :
    1  1                                    |    1  1

--- !COMMENT
src_file: m_hdr.F90
src_line: 4417
message: |
    input kptrlatt = 0 0 0 0 0 0 0 0 0  /= disk file kptrlatt = 12 0 0 0 12 0 -6 6 32
...


--- !COMMENT
src_file: m_hdr.F90
src_line: 4420
message: |
    input kptopt = -3  /= disk file kptopt = 1
...


--- !WARNING
src_file: m_hdr.F90
src_line: 4441
message: |
    input ival=0 not equal disk file ival=13
...

  tnons:                                    |  tnons:
     0.0000000   0.0000000   0.0000000      |     0.0000000   0.0000000   0.0000000
     0.0000000   0.0000000   0.0000000      |     0.0000000   0.0000000   0.0000000
     0.0000000   0.0000000   0.0000000      |     0.0000000   0.0000000   0.0000000
     0.0000000   0.0000000   0.0000000      |     0.0000000   0.0000000   0.0000000
     0.0000000   0.0000000   0.0000000      |     0.0000000   0.0000000   0.0000000
     0.0000000   0.0000000   0.0000000      |     0.0000000   0.0000000   0.0000000
     0.0000000   0.0000000   0.0000000      |     0.0000000   0.0000000   0.0000000
     0.0000000   0.0000000   0.0000000      |     0.0000000   0.0000000   0.0000000
     0.0000000   0.0000000   0.0000000      |     0.0000000   0.0000000   0.0000000
     0.0000000   0.0000000   0.0000000      |     0.0000000   0.0000000   0.0000000
     0.0000000   0.0000000   0.0000000      |     0.0000000   0.0000000   0.0000000
     0.0000000   0.0000000   0.0000000      |     0.0000000   0.0000000   0.0000000
   znucl:                                   |   znucl:
   42.00 16.00                              |       42.00 16.00
  pseudopotential atom type  1:             |  pseudopotential atom type  1:
  pspso   0 pspxc  11                       |  pspso   0 pspxc  11
  pspdat   170510 pspcod    8 zion  14.0    |  pspdat   170510 pspcod    8 zion  14.0
  pseudopotential atom type  2:             |  pseudopotential atom type  2:
  pspso   0 pspxc  11                       |  pspso   0 pspxc  11
  pspdat   170504 pspcod    8 zion   6.0    |  pspdat   170504 pspcod    8 zion   6.0
  xred:                                     |  xred:
     0.0000000   0.0000000   0.0000000      |     0.0000000   0.0000000   0.0000000
     0.3333333   0.3333333  -0.0980000      |     0.3333333   0.3333333  -0.0980000
     0.3333333   0.3333333   0.0980000      |     0.3333333   0.3333333   0.0980000
 hdr_check:  Density/Potential file is OK for restart of calculation
================================================================================
 read_rhor completed. cpu:  0.00 [s] , wall:  0.00 [s] <<< TIME

================================================================================

 getcut: wavevector=  0.0000  0.0000  0.0000  ngfft=  27  27 135
         ecut(hartree)=     20.000   => boxcut(ratio)=   2.01886
 Max number of non-self-consistent loops: 20
 k-point: [ 1 / 38 ], spin: 1
   Max resid = 1.73441E+00  (exclude nbdbuf bands). One NSCF iteration cpu-time:  0.11 [s] , wall-time:  0.11 [s]
   Max resid = 1.96740E-02  (exclude nbdbuf bands). One NSCF iteration cpu-time:  0.10 [s] , wall-time:  0.10 [s]
   Max resid = 1.67502E-03  (exclude nbdbuf bands). One NSCF iteration cpu-time:  0.10 [s] , wall-time:  0.11 [s]
   Printing residuals every mod(20) iterations...
   NSCF loop completed after 15 iterations
 
 -------------------------------------------------------------------------------------------------
 Ekinetic   = :     0.000000E+00 Ha ,    0.000000E+00 eV
 Evext_l    = :     0.000000E+00 Ha ,    0.000000E+00 eV
 Evext_nl   = :     0.000000E+00 Ha ,    0.000000E+00 eV
 Epsp_core  = :     8.513015E-01 Ha ,    2.316509E+01 eV
 Ehartree   = :     0.000000E+00 Ha ,    0.000000E+00 eV
 Exc_ks     = :    -1.655130E+01 Ha ,   -4.503837E+02 eV
 Enn        = :     1.403444E+02 Ha ,    3.818965E+03 eV
 -------------------------------------------------------------------------------------------------
[...]
 -62.03206  -36.14246  -36.12293  -36.00979  -13.60331  -13.21814   -5.40113   -4.60644
  -4.47730   -4.05215   -2.72834   -2.30025   -1.76086    0.36884
 kpt#  33, nband= 14, wtk=  1.00000, kpt=  0.7059  0.8529  0.8529 (reduced coord)
 -62.03848  -36.13272  -36.10124  -35.98670  -13.89771  -13.38099   -5.44706   -4.45536
  -4.17672   -3.65221   -2.50967   -2.14012   -1.82036    0.39877
 kpt#  34, nband= 14, wtk=  1.00000, kpt=  0.7647  0.8824  0.8824 (reduced coord)
 -62.04454  -36.14383  -36.05513  -35.96684  -14.16820  -13.53113   -5.66409   -4.10552
  -3.93396   -3.13620   -2.52405   -2.03921   -1.75780    0.54317
 kpt#  35, nband= 14, wtk=  1.00000, kpt=  0.8235  0.9118  0.9118 (reduced coord)
 -62.04249  -36.15032  -36.00607  -35.94902  -14.39626  -13.65803   -5.91064   -3.70194
  -3.67887   -2.67781   -2.65833   -1.99285   -1.64989    0.78086
 kpt#  36, nband= 14, wtk=  1.00000, kpt=  0.8824  0.9412  0.9412 (reduced coord)
 -62.04237  -36.15696  -35.96720  -35.93524  -14.56858  -13.75402   -6.11892   -3.42776
  -3.33463   -2.83597   -2.29975   -1.99092   -1.58960    1.13140
 kpt#  37, nband= 14, wtk=  1.00000, kpt=  0.9412  0.9706  0.9706 (reduced coord)
 -62.03878  -36.16150  -35.93580  -35.92722  -14.67556  -13.81373   -6.25563   -3.22961
  -3.07408   -2.94318   -2.09300   -2.01321   -1.57147    1.39583
 kpt#  38, nband= 14, wtk=  1.00000, kpt=  1.0000  1.0000  1.0000 (reduced coord)
 -62.04285  -36.16390  -35.92792  -35.92792  -14.71207  -13.83405   -6.30318   -3.15121
  -2.98084   -2.98084   -2.02830   -2.02830   -1.56961    1.49206
 Total charge density [el/Bohr^3]
      Maximum=    8.9245E-01  at reduced coord.    0.8889    0.9630    0.0000
 Next maximum=    8.9245E-01  at reduced coord.    0.1481    0.9630    0.0000
      Minimum=    1.2996E-07  at reduced coord.    0.5926    0.4815    0.4963
 Next minimum=    1.2996E-07  at reduced coord.    0.9259    0.4815    0.4963
   Integrated=    2.6000E+01

== END DATASET(S) ==============================================================
================================================================================
  
 -outvars: echo values of variables after computation  --------
 
 These variables are accessible in NetCDF format (o_OUT.nc)

            acell      6.0300000000E+00  6.0300000000E+00  3.2970000000E+01 Bohr
              amu      9.59400000E+01  3.20660000E+01
      chksymbreak           0
           diemac      1.20000000E+01
             ecut      2.00000000E+01 Hartree
           enunit1          0
           enunit2          1
           etotal1    -9.2359679941E+01
            fcart1    -0.0000000000E+00 -9.5262185894E-28 -0.0000000000E+00
                      -4.1249736502E-28  1.1907773237E-27  4.3251682666E-02
                       4.1249736502E-28 -2.3815546473E-28 -4.3251682666E-02
-          fftalg         112
           getden1          0
           getden2         -1
             iscf1          7
             iscf2         -2
           istwfk2       3    0    0    0    0    0    0    0    0    0
                         2    0    0    0    0    0    0    0    0    0
                         8    0    0    0    0    0    0    0    0    0
                         0    0    0    0    0    0    0    0
                       outvar_i_n : Printing only first  50 k-points.
              ixc          11
           jdtset        1    2
              kpt1    -8.33333333E-02  0.00000000E+00  0.00000000E+00
                      -2.50000000E-01  0.00000000E+00  0.00000000E+00
                      -1.66666667E-01  0.00000000E+00  1.56250000E-02
                      -8.33333333E-02  0.00000000E+00  3.12500000E-02
                      -1.66666667E-01  8.33333333E-02  0.00000000E+00
                      -8.33333333E-02  8.33333333E-02  1.56250000E-02
                      -4.16666667E-01  0.00000000E+00  0.00000000E+00
                      -3.33333333E-01  0.00000000E+00  1.56250000E-02
                      -2.50000000E-01  0.00000000E+00  3.12500000E-02
                      -1.66666667E-01  0.00000000E+00  4.68750000E-02
                      -8.33333333E-02  0.00000000E+00  6.25000000E-02
                      -3.33333333E-01  8.33333333E-02  0.00000000E+00
                      -2.50000000E-01  8.33333333E-02  1.56250000E-02
                      -1.66666667E-01  8.33333333E-02  3.12500000E-02
                      -8.33333333E-02  8.33333333E-02  4.68750000E-02
                      -2.50000000E-01  1.66666667E-01  0.00000000E+00
                      -1.66666667E-01  1.66666667E-01  1.56250000E-02
                       5.00000000E-01  0.00000000E+00  1.56250000E-02
                      -4.16666667E-01  0.00000000E+00  3.12500000E-02
                      -3.33333333E-01  0.00000000E+00  4.68750000E-02
                      -2.50000000E-01  0.00000000E+00  6.25000000E-02
                      -1.66666667E-01  0.00000000E+00  7.81250000E-02
                      -8.33333333E-02  0.00000000E+00  9.37500000E-02
                       5.00000000E-01  8.33333333E-02  0.00000000E+00
                      -4.16666667E-01  8.33333333E-02  1.56250000E-02
                      -3.33333333E-01  8.33333333E-02  3.12500000E-02
                      -2.50000000E-01  8.33333333E-02  4.68750000E-02
                      -1.66666667E-01  8.33333333E-02  6.25000000E-02
                      -8.33333333E-02  8.33333333E-02  7.81250000E-02
                      -4.16666667E-01  1.66666667E-01  0.00000000E+00
                      -3.33333333E-01  1.66666667E-01  1.56250000E-02
                      -2.50000000E-01  1.66666667E-01  3.12500000E-02
                      -1.66666667E-01  1.66666667E-01  4.68750000E-02
                      -3.33333333E-01  2.50000000E-01  0.00000000E+00
                      -2.50000000E-01  2.50000000E-01  1.56250000E-02
                       5.00000000E-01  0.00000000E+00  4.68750000E-02
                      -4.16666667E-01  0.00000000E+00  6.25000000E-02
                      -3.33333333E-01  0.00000000E+00  7.81250000E-02
                      -2.50000000E-01  0.00000000E+00  9.37500000E-02
                      -1.66666667E-01  0.00000000E+00  1.09375000E-01
                      -8.33333333E-02  0.00000000E+00  1.25000000E-01
                       3.33333333E-01  8.33333333E-02  0.00000000E+00
                       4.16666667E-01  8.33333333E-02  1.56250000E-02
                       5.00000000E-01  8.33333333E-02  3.12500000E-02
                      -4.16666667E-01  8.33333333E-02  4.68750000E-02
                      -3.33333333E-01  8.33333333E-02  6.25000000E-02
                      -2.50000000E-01  8.33333333E-02  7.81250000E-02
                      -1.66666667E-01  8.33333333E-02  9.37500000E-02
                      -8.33333333E-02  8.33333333E-02  1.09375000E-01
                      -4.16666667E-01  1.66666667E-01  3.12500000E-02
              kpt2     5.00000000E-01  0.00000000E+00  0.00000000E+00
                       4.50000000E-01  0.00000000E+00  0.00000000E+00
                       4.00000000E-01  0.00000000E+00  0.00000000E+00
                       3.50000000E-01  0.00000000E+00  0.00000000E+00
                       3.00000000E-01  0.00000000E+00  0.00000000E+00
                       2.50000000E-01  0.00000000E+00  0.00000000E+00
                       2.00000000E-01  0.00000000E+00  0.00000000E+00
                       1.50000000E-01  0.00000000E+00  0.00000000E+00
                       1.00000000E-01  0.00000000E+00  0.00000000E+00
                       5.00000000E-02  0.00000000E+00  0.00000000E+00
                       0.00000000E+00  0.00000000E+00  0.00000000E+00
                       0.00000000E+00  5.00000000E-02  5.00000000E-02
                       0.00000000E+00  1.00000000E-01  1.00000000E-01
                       0.00000000E+00  1.50000000E-01  1.50000000E-01
                       0.00000000E+00  2.00000000E-01  2.00000000E-01
                       0.00000000E+00  2.50000000E-01  2.50000000E-01
                       0.00000000E+00  3.00000000E-01  3.00000000E-01
                       0.00000000E+00  3.50000000E-01  3.50000000E-01
                       0.00000000E+00  4.00000000E-01  4.00000000E-01
                       0.00000000E+00  4.50000000E-01  4.50000000E-01
                       0.00000000E+00  5.00000000E-01  5.00000000E-01
                       5.88235294E-02  5.29411765E-01  5.29411765E-01
                       1.17647059E-01  5.58823529E-01  5.58823529E-01
                       1.76470588E-01  5.88235294E-01  5.88235294E-01
                       2.35294118E-01  6.17647059E-01  6.17647059E-01
                       2.94117647E-01  6.47058824E-01  6.47058824E-01
                       3.52941176E-01  6.76470588E-01  6.76470588E-01
                       4.11764706E-01  7.05882353E-01  7.05882353E-01
                       4.70588235E-01  7.35294118E-01  7.35294118E-01
                       5.29411765E-01  7.64705882E-01  7.64705882E-01
                       5.88235294E-01  7.94117647E-01  7.94117647E-01
                       6.47058824E-01  8.23529412E-01  8.23529412E-01
                       7.05882353E-01  8.52941176E-01  8.52941176E-01
                       7.64705882E-01  8.82352941E-01  8.82352941E-01
                       8.23529412E-01  9.11764706E-01  9.11764706E-01
                       8.82352941E-01  9.41176471E-01  9.41176471E-01
                       9.41176471E-01  9.70588235E-01  9.70588235E-01
                       1.00000000E+00  1.00000000E+00  1.00000000E+00
                       outvar_i_n : Printing only first  50 k-points.
           kptopt1          1
           kptopt2         -3
         kptrlatt       12    0    0      0   12    0     -6    6   32
          kptrlen1     7.23600000E+01
          kptrlen2     3.00000000E+01
P           mkmem1        508
P           mkmem2         38
            natom           3
            nband1         14
            nband2         14
           nbdbuf1          0
           nbdbuf2          2
           ndtset           2
           ndivsm1          0
           ndivsm2         10
            ngfft          27      27     135
             nkpt1        508
             nkpt2         38
            nstep          20
             nsym          12
           ntypat           2
              occ      2.000000  2.000000  2.000000  2.000000  2.000000  2.000000
                       2.000000  2.000000  2.000000  2.000000  2.000000  2.000000
                       2.000000  0.000000
            rprim      8.6602540378E-01 -5.0000000000E-01  0.0000000000E+00
                       8.6602540378E-01  5.0000000000E-01  0.0000000000E+00
                       0.0000000000E+00  0.0000000000E+00  1.0000000000E+00
           shiftk1     0.00000000E+00  0.00000000E+00  5.00000000E-01
           shiftk2     5.00000000E-01  5.00000000E-01  5.00000000E-01
          spgroup         187
           strten1     3.4992235666E-04  3.4992235666E-04  5.3500620740E-04
                       0.0000000000E+00  0.0000000000E+00  0.0000000000E+00
           symrel      1  0  0   0  1  0   0  0  1       1 -1  0   0 -1  0   0  0 -1
                       0 -1  0   1 -1  0   0  0 -1      -1  0  0  -1  1  0   0  0  1
                      -1  1  0  -1  0  0   0  0  1       0  1  0   1  0  0   0  0 -1
                       1  0  0   0  1  0   0  0 -1       1 -1  0   0 -1  0   0  0  1
                       0 -1  0   1 -1  0   0  0  1      -1  0  0  -1  1  0   0  0 -1
                      -1  1  0  -1  0  0   0  0 -1       0  1  0   1  0  0   0  0  1
           toldfe1     1.00000000E-04 Hartree
           toldfe2     0.00000000E+00 Hartree
           tolwfr1     0.00000000E+00
           tolwfr2     1.00000000E-12
            typat      1  2  2
              wtk1       0.00087    0.00087    0.00260    0.00174    0.00174    0.00087
                         0.00087    0.00260    0.00174    0.00260    0.00174    0.00174
                         0.00174    0.00347    0.00087    0.00174    0.00260    0.00130
                         0.00174    0.00260    0.00174    0.00260    0.00174    0.00174
                         0.00174    0.00347    0.00174    0.00347    0.00087    0.00087
                         0.00521    0.00347    0.00260    0.00174    0.00087    0.00130
                         0.00174    0.00260    0.00174    0.00260    0.00174    0.00174
                         0.00174    0.00347    0.00174    0.00347    0.00174    0.00347
                         0.00087    0.00174
              wtk2       1.00000    1.00000    1.00000    1.00000    1.00000    1.00000
                         1.00000    1.00000    1.00000    1.00000    1.00000    1.00000
                         1.00000    1.00000    1.00000    1.00000    1.00000    1.00000
                         1.00000    1.00000    1.00000    1.00000    1.00000    1.00000
                         1.00000    1.00000    1.00000    1.00000    1.00000    1.00000
                         1.00000    1.00000    1.00000    1.00000    1.00000    1.00000
                         1.00000    1.00000
                       outvars : Printing only first  50 k-points.
           xangst      0.0000000000E+00  0.0000000000E+00  0.0000000000E+00
                       1.8422892411E+00  0.0000000000E+00 -1.7098033116E+00
                       1.8422892411E+00  0.0000000000E+00  1.7098033116E+00
            xcart      0.0000000000E+00  0.0000000000E+00  0.0000000000E+00
                       3.4814221232E+00  0.0000000000E+00 -3.2310600000E+00
                       3.4814221232E+00  0.0000000000E+00  3.2310600000E+00
             xred      0.0000000000E+00  0.0000000000E+00  0.0000000000E+00
                       3.3333333333E-01  3.3333333333E-01 -9.8000000000E-02
                       3.3333333333E-01  3.3333333333E-01  9.8000000000E-02
            znucl       42.00000   16.00000

================================================================================
  

================================================================================

 Suggested references for the acknowledgment of ABINIT usage.

 The users of ABINIT have little formal obligations with respect to the ABINIT group
 (those specified in the GNU General Public License, http://www.gnu.org/copyleft/gpl.txt).
 However, it is common practice in the scientific literature,
 to acknowledge the efforts of people that have made the research possible.
 In this spirit, please find below suggested citations of work written by ABINIT developers,
 corresponding to implementations inside of ABINIT that you have used in the present run.
 Note also that it will be of great value to readers of publications presenting these results,
 to read papers enabling them to understand the theoretical formalism and details
 of the ABINIT implementation.
 For information on why they are suggested, see also https://docs.abinit.org/theory/acknowledgments.
-
- [1] The Abinit project: Impact, environment and recent developments.
- Computer Phys. Comm. 248, 107042 (2020).
- X.Gonze, B. Amadon, G. Antonius, F.Arnardi, L.Baguet, J.-M.Beuken,
- J.Bieder, F.Bottin, J.Bouchet, E.Bousquet, N.Brouwer, F.Bruneval,
- G.Brunin, T.Cavignac, J.-B. Charraud, Wei Chen, M.Cote, S.Cottenier,
- J.Denier, G.Geneste, Ph.Ghosez, M.Giantomassi, Y.Gillet, O.Gingras,
- D.R.Hamann, G.Hautier, Xu He, N.Helbig, N.Holzwarth, Y.Jia, F.Jollet,
- W.Lafargue-Dit-Hauret, K.Lejaeghere, M.A.L.Marques, A.Martin, C.Martins,
- H.P.C. Miranda, F.Naccarato, K. Persson, G.Petretto, V.Planes, Y.Pouillon,
- S.Prokhorenko, F.Ricci, G.-M.Rignanese, A.H.Romero, M.M.Schmitt, M.Torrent,
- M.J.van Setten, B.Van Troeye, M.J.Verstraete, G.Zerah and J.W.Zwanzig
- Comment: the fifth generic paper describing the ABINIT project.
- Note that a version of this paper, that is not formatted for Computer Phys. Comm. 
- is available at https://www.abinit.org/sites/default/files/ABINIT20.pdf .
- The licence allows the authors to put it on the Web.
- DOI and bibtex: see https://docs.abinit.org/theory/bibliography/#gonze2020
-
- [2] Optimized norm-conserving Vanderbilt pseudopotentials.
- D.R. Hamann, Phys. Rev. B 88, 085117 (2013).
- Comment: Some pseudopotential generated using the ONCVPSP code were used.
- DOI and bibtex: see https://docs.abinit.org/theory/bibliography/#hamann2013
-
- [3] ABINIT: Overview, and focus on selected capabilities
- J. Chem. Phys. 152, 124102 (2020).
- A. Romero, D.C. Allan, B. Amadon, G. Antonius, T. Applencourt, L.Baguet,
- J.Bieder, F.Bottin, J.Bouchet, E.Bousquet, F.Bruneval,
- G.Brunin, D.Caliste, M.Cote,
- J.Denier, C. Dreyer, Ph.Ghosez, M.Giantomassi, Y.Gillet, O.Gingras,
- D.R.Hamann, G.Hautier, F.Jollet, G. Jomard,
- A.Martin, 
- H.P.C. Miranda, F.Naccarato, G.Petretto, N.A. Pike, V.Planes,
- S.Prokhorenko, T. Rangel, F.Ricci, G.-M.Rignanese, M.Royo, M.Stengel, M.Torrent,
- M.J.van Setten, B.Van Troeye, M.J.Verstraete, J.Wiktor, J.W.Zwanziger, and X.Gonze.
- Comment: a global overview of ABINIT, with focus on selected capabilities .
- Note that a version of this paper, that is not formatted for J. Chem. Phys 
- is available at https://www.abinit.org/sites/default/files/ABINIT20_JPC.pdf .
- The licence allows the authors to put it on the Web.
- DOI and bibtex: see https://docs.abinit.org/theory/bibliography/#romero2020
-
- [4] Recent developments in the ABINIT software package.
- Computer Phys. Comm. 205, 106 (2016).
- X.Gonze, F.Jollet, F.Abreu Araujo, D.Adams, B.Amadon, T.Applencourt,
- C.Audouze, J.-M.Beuken, J.Bieder, A.Bokhanchuk, E.Bousquet, F.Bruneval
- D.Caliste, M.Cote, F.Dahm, F.Da Pieve, M.Delaveau, M.Di Gennaro,
- B.Dorado, C.Espejo, G.Geneste, L.Genovese, A.Gerossier, M.Giantomassi,
- Y.Gillet, D.R.Hamann, L.He, G.Jomard, J.Laflamme Janssen, S.Le Roux,
- A.Levitt, A.Lherbier, F.Liu, I.Lukacevic, A.Martin, C.Martins,
- M.J.T.Oliveira, S.Ponce, Y.Pouillon, T.Rangel, G.-M.Rignanese,
- A.H.Romero, B.Rousseau, O.Rubel, A.A.Shukri, M.Stankovski, M.Torrent,
- M.J.Van Setten, B.Van Troeye, M.J.Verstraete, D.Waroquier, J.Wiktor,
- B.Xu, A.Zhou, J.W.Zwanziger.
- Comment: the fourth generic paper describing the ABINIT project.
- Note that a version of this paper, that is not formatted for Computer Phys. Comm. 
- is available at https://www.abinit.org/sites/default/files/ABINIT16.pdf .
- The licence allows the authors to put it on the Web.
- DOI and bibtex: see https://docs.abinit.org/theory/bibliography/#gonze2016
-
- And optionally:
-
- [5] ABINIT: First-principles approach of materials and nanosystem properties.
- Computer Phys. Comm. 180, 2582-2615 (2009).
- X. Gonze, B. Amadon, P.-M. Anglade, J.-M. Beuken, F. Bottin, P. Boulanger, F. Bruneval,
- D. Caliste, R. Caracas, M. Cote, T. Deutsch, L. Genovese, Ph. Ghosez, M. Giantomassi
- S. Goedecker, D.R. Hamann, P. Hermet, F. Jollet, G. Jomard, S. Leroux, M. Mancini, S. Mazevet,
- M.J.T. Oliveira, G. Onida, Y. Pouillon, T. Rangel, G.-M. Rignanese, D. Sangalli, R. Shaltaf,
- M. Torrent, M.J. Verstraete, G. Zerah, J.W. Zwanziger
- Comment: the third generic paper describing the ABINIT project.
- Note that a version of this paper, that is not formatted for Computer Phys. Comm. 
- is available at https://www.abinit.org/sites/default/files/ABINIT_CPC_v10.pdf .
- The licence allows the authors to put it on the Web.
- DOI and bibtex: see https://docs.abinit.org/theory/bibliography/#gonze2009
 Proc.   0 individual time (sec): cpu=       1958.2  wall=       1987.4

 Calculation completed.
.Delivered   2 WARNINGs and   5 COMMENTs to log file.

--- !FinalSummary
program: abinit
version: 9.6.2
start_datetime: Sat Nov 19 11:27:13 2022
end_datetime: Sat Nov 19 12:00:20 2022
overall_cpu_time:        1958.2
overall_wall_time:        1987.4
exit_requested_by_user: no 
timelimit: 0
pseudos: 
    Mo  : 228091cb5782e08cb8d68936b3c7e57b
    S   : bfa270bf1631b0df1a1d98e9ab044d60
usepaw: 0
mpi_procs: 1
omp_threads: 1
num_warnings: 2
num_comments: 5
...
