  ABINIT 9.6.2
  
-instrng: 67 lines of input have been read from file tbase3


.Version 9.6.2 of ABINIT 
.(MPI version, prepared for a x86_64_linux_gnu11.2 computer) 

.Copyright (C) 1998-2021 ABINIT group . 
 ABINIT comes with ABSOLUTELY NO WARRANTY.
 It is free software, and you are welcome to redistribute it
 under certain conditions (GNU General Public License,
 see ~abinit/COPYING or http://www.gnu.org/copyleft/gpl.txt).

 ABINIT is a project of the Universite Catholique de Louvain,
 Corning Inc. and other collaborators, see ~abinit/doc/developers/contributors.txt .
 Please read https://docs.abinit.org/theory/acknowledgments for suggested
 acknowledgments of the ABINIT effort.
 For more information, see https://www.abinit.org .

.Starting date : Sat 12 Nov 2022.
- ( at 16h57 )
  

 ++++++++++++++++++++++++++++++++++++++++++++++++++++++++++++++++++++++++++++++

 === Build Information === 
  Version       : 9.6.2
  Build target  : x86_64_linux_gnu11.2
  Build date    : 20220106

 === Compiler Suite === 
  C compiler       : gnu11.2
  C++ compiler     : gnu11.2
  Fortran compiler : gnu11.2
  CFLAGS           : -g -O2 -ffile-prefix-map=/build/abinit-GxX7li/abinit-9.6.2=. -fstack-protector-strong -Wformat -Werror=format-security
  CXXFLAGS         : -g -O2 -ffile-prefix-map=/build/abinit-GxX7li/abinit-9.6.2=. -fstack-protector-strong -Wformat -Werror=format-security
  FCFLAGS          : -g -O2 -ffile-prefix-map=/build/abinit-GxX7li/abinit-9.6.2=. -fstac ...
  FC_LDFLAGS       : 

 === Optimizations === 
  Debug level        : basic
  Optimization level : standard
  Architecture       : intel_xeon

 === Multicore === 
  Parallel build : 
  Parallel I/O   : 
  openMP support : 
  GPU support    : 

 === Connectors / Fallbacks === 
  LINALG flavor  : netlib
  FFT flavor     : goedecker
  HDF5           : yes
  NetCDF         : yes
  NetCDF Fortran : yes
  LibXC          : yes
  Wannier90      : no

 === Experimental features === 
  Exports             : 
  GW double-precision : 

 ++++++++++++++++++++++++++++++++++++++++++++++++++++++++++++++++++++++++++++++


 ++++++++++++++++++++++++++++++++++++++++++++++++++++++++++++++++++++++++++++++
 Default optimizations:
   --- None ---


 ++++++++++++++++++++++++++++++++++++++++++++++++++++++++++++++++++++++++++++++


 ++++++++++++++++++++++++++++++++++++++++++++++++++++++++++++++++++++++++++++++
 CPP options activated during the build:

                    CC_GNU                   CXX_GNU                    FC_GNU
 
 HAVE_FC_ALLOCATABLE_DT...             HAVE_FC_ASYNC         HAVE_FC_BACKTRACE
 
  HAVE_FC_COMMAND_ARGUMENT      HAVE_FC_COMMAND_LINE        HAVE_FC_CONTIGUOUS
 
           HAVE_FC_CPUTIME              HAVE_FC_EXIT             HAVE_FC_FLUSH
 
             HAVE_FC_GAMMA            HAVE_FC_GETENV   HAVE_FC_IEEE_ARITHMETIC
 
   HAVE_FC_IEEE_EXCEPTIONS          HAVE_FC_INT_QUAD             HAVE_FC_IOMSG
 
     HAVE_FC_ISO_C_BINDING  HAVE_FC_ISO_FORTRAN_2008        HAVE_FC_LONG_LINES
 
        HAVE_FC_MOVE_ALLOC  HAVE_FC_ON_THE_FLY_SHAPE           HAVE_FC_PRIVATE
 
         HAVE_FC_PROTECTED           HAVE_FC_SHIFTLR         HAVE_FC_STREAM_IO
 
            HAVE_FC_SYSTEM          HAVE_FORTRAN2003                 HAVE_HDF5
 
        HAVE_LIBPAW_ABINIT      HAVE_LIBTETRA_ABINIT                HAVE_LIBXC
 
                  HAVE_MPI                 HAVE_MPI2       HAVE_MPI_IALLGATHER
 
       HAVE_MPI_IALLREDUCE        HAVE_MPI_IALLTOALL       HAVE_MPI_IALLTOALLV
 
           HAVE_MPI_IBCAST         HAVE_MPI_IGATHERV        HAVE_MPI_INTEGER16
 
               HAVE_MPI_IO HAVE_MPI_TYPE_CREATE_S...               HAVE_NETCDF
 
       HAVE_NETCDF_FORTRAN                HAVE_NUMPY             HAVE_OS_LINUX
 
         HAVE_TIMER_ABINIT                                                      
 ++++++++++++++++++++++++++++++++++++++++++++++++++++++++++++++++++++++++++++++

- input  file    -> tbase3
- output file    -> tbase3.abo
- root for input  files -> i
- root for output files -> o

-instrng: 67 lines of input have been read from file tbase3

 For atom type 1, psp file is Mo.psp8
 For atom type 2, psp file is S.psp8
  read the values zionpsp= 14.0 , pspcod=   8 , lmax=   2
  read the values zionpsp=  6.0 , pspcod=   8 , lmax=   2

 inpspheads: deduce mpsang = 3, n1xccc = 2501.

======================================================= 
 invars1m : enter jdtset= 0

 symlatt: the Bravais lattice is hP (primitive hexagonal)
  xred   is defined in input file
 ingeo: takes atomic coordinates from input array xred

--- !COMMENT
src_file: m_ingeo.F90
src_line: 900
message: |
    The tolerance on symmetries =   1.000E-05 is bigger than 1.0e-8.
    In order to avoid spurious effects, the atomic coordinates have been
    symmetrized before storing them in the dataset internal variable.
    So, do not be surprised by the fact that your input variables (xcart, xred, ...)
    do not correspond exactly to the ones echoed by ABINIT, the latter being used to do the calculations.
    This is not a problem per se.
    Still, in order to avoid this symmetrization (e.g. for specific debugging/development), decrease tolsym to 1.0e-8 or lower,
    or (much preferred) use input primitive vectors that are accurate to better than 1.0e-8.
    This message will only be printed once, even if there are other datasets where tolsym is bigger than 1.0e-8.
...


 symlatt: the Bravais lattice is hP (primitive hexagonal)

 symlatt: the Bravais lattice is hP (primitive hexagonal)
 symspgr: spgroup= 187  P-6 m 2   (=D3h^1)
 symspgr: optical characteristics = uniaxial
 Optical axis (in reduced coordinates, real space ) :   0   0   1
 inkpts: Sum of 1 k point weights is    1.000000
 invars2: take the default value of fband=  1.25000000E-01
 inkpts: Sum of 1 k point weights is    1.000000
 For input ecut=  2.000000E+01 best grid ngfft=      27      27     135
       max ecut=  2.037893E+01

 ==== FFT mesh ====
  FFT mesh divisions ........................    27   27  135
  Augmented FFT divisions ...................    27   27  135
  FFT algorithm .............................   112
  FFT cache size ............................    16
 getmpw: optimal value of mpw= 2194

 Symmetries : space group P-6 m 2 (#187); Bravais hP (primitive hexag.)

 getdim_nloc : deduce lmnmax  =  18, lnmax  =   6,
                      lmnmaxso=  18, lnmaxso=   6.
memory: analysis of memory needs
================================================================================
 Values of the parameters that define the memory need of the present run
     intxc =       0    ionmov =       0      iscf =       7    lmnmax =       6
     lnmax =       6     mgfft =     135  mpssoang =       3    mqgrid =    6638
     natom =       3  nloc_mem =       1    nspden =       1   nspinor =       1
    nsppol =       1      nsym =      12    n1xccc =    2501    ntypat =       2
    occopt =       1   xclevel =       2
-    mband =          14        mffmem =           1         mkmem =           1
       mpw =        2194          nfft =       98415          nkpt =           1
================================================================================
P This job should need less than                      34.059 Mbytes of memory.
  Rough estimation (10% accuracy) of disk space for files :
_ WF disk file :      0.471 Mbytes ; DEN or POT disk file :      0.753 Mbytes.
================================================================================

 Biggest array : f_fftgr(disk), with     12.0155 MBytes.
 memana : allocated an array of     12.016 Mbytes, for testing purposes.
 memana: allocated      34.059Mbytes, for testing purposes. 
 The job will continue.
--------------------------------------------------------------------------------
------------- Echo of variables that govern the present computation ------------
--------------------------------------------------------------------------------
-
- outvars: echo of selected default values                                      
-   iomode0 =  0 , fftalg0 =112 , wfoptalg0 =  0
-
- outvars: echo of global parameters not present in the input file              
-  max_nthreads =    0
-
 -outvars: echo values of preprocessed input variables --------
 
 These variables are accessible in NetCDF format (o_OUT.nc)

            acell      6.0300000000E+00  6.0300000000E+00  3.2970000000E+01 Bohr
              amu      9.59400000E+01  3.20660000E+01
           diemac      2.00000000E+00
             ecut      2.00000000E+01 Hartree
-          fftalg         112
           istwfk        2
              ixc          11
           kptopt           0
P           mkmem           1
            natom           3
            nband          14
            ngfft          27      27     135
             nkpt           1
            nstep          20
             nsym          12
           ntypat           2
              occ      2.000000  2.000000  2.000000  2.000000  2.000000  2.000000
                       2.000000  2.000000  2.000000  2.000000  2.000000  2.000000
                       2.000000  0.000000
            rprim      8.6602540378E-01 -5.0000000000E-01  0.0000000000E+00
                       8.6602540378E-01  5.0000000000E-01  0.0000000000E+00
                       0.0000000000E+00  0.0000000000E+00  1.0000000000E+00
          spgroup         187
           symrel      1  0  0   0  1  0   0  0  1       1 -1  0   0 -1  0   0  0 -1
                       0 -1  0   1 -1  0   0  0 -1      -1  0  0  -1  1  0   0  0  1
                      -1  1  0  -1  0  0   0  0  1       0  1  0   1  0  0   0  0 -1
                       1  0  0   0  1  0   0  0 -1       1 -1  0   0 -1  0   0  0  1
                       0 -1  0   1 -1  0   0  0  1      -1  0  0  -1  1  0   0  0 -1
                      -1  1  0  -1  0  0   0  0 -1       0  1  0   1  0  0   0  0  1
           toldfe      1.00000000E-06 Hartree
            typat      1  2  2
           xangst      0.0000000000E+00  0.0000000000E+00  0.0000000000E+00
                       1.8422892411E+00  0.0000000000E+00 -1.7098033116E+00
                       1.8422892411E+00  0.0000000000E+00  1.7098033116E+00
            xcart      0.0000000000E+00  0.0000000000E+00  0.0000000000E+00
                       3.4814221232E+00  0.0000000000E+00 -3.2310600000E+00
                       3.4814221232E+00  0.0000000000E+00  3.2310600000E+00
             xred      0.0000000000E+00  0.0000000000E+00  0.0000000000E+00
                       3.3333333333E-01  3.3333333333E-01 -9.8000000000E-02
                       3.3333333333E-01  3.3333333333E-01  9.8000000000E-02
            znucl       42.00000   16.00000

================================================================================

 chkinp: Checking input parameters for consistency.
 DATA TYPE INFORMATION: 
 REAL:      Data type name: REAL(DP) 
            Kind value:      8
            Precision:      15
            Smallest nonnegligible quantity relative to 1: 0.22204460E-015
            Smallest positive number:                      0.22250739E-307
            Largest representable number:                  0.17976931E+309
 INTEGER:   Data type name: INTEGER(default) 
            Kind value: 4
            Bit size:   32
            Largest representable number: 2147483647
 LOGICAL:   Data type name: LOGICAL 
            Kind value: 4
 CHARACTER: Data type name: CHARACTER             Kind value: 1

  ==== OpenMP parallelism is OFF ====
 
  ==== Using MPI-2 specifications ==== 
  MPI-IO support is ON
  xmpi_tag_ub ................   2147483647
  xmpi_bsize_ch ..............            1
  xmpi_bsize_int .............            4
  xmpi_bsize_sp ..............            4
  xmpi_bsize_dp ..............            8
  xmpi_bsize_spc .............            8
  xmpi_bsize_dpc .............           16
  xmpio_bsize_frm ............            4
  xmpi_address_kind ..........            8
  xmpi_offset_kind ...........            8
  MPI_WTICK ..................    1.0000000000000001E-009

================================================================================
== DATASET  1 ==================================================================
-   mpi_nproc: 1, omp_nthreads: -1 (-1 if OMP is not activated)


--- !COMMENT
src_file: m_xgScalapack.F90
src_line: 236
message: |
    xgScalapack in auto mode
...


 getdim_nloc : deduce lmnmax  =  18, lnmax  =   6,
                      lmnmaxso=  18, lnmaxso=   6.
 Exchange-correlation functional for the present dataset will be:
  GGA: Perdew-Burke-Ernzerhof functional - ixc=11
 Citation for XC functional:
  J.P.Perdew, K.Burke, M.Ernzerhof, PRL 77, 3865 (1996)

 Unit cell volume ucvol=  1.0382076E+03 bohr^3
 Angles (23,13,12)=  9.00000000E+01  9.00000000E+01  6.00000000E+01 degrees

 getcut: wavevector=  0.0000  0.0000  0.0000  ngfft=  27  27 135
         ecut(hartree)=     20.000   => boxcut(ratio)=   2.01886
- pspini: atom type   1  psp file is Mo.psp8
- pspatm: opening atomic psp file    Mo.psp8
- Mo    ONCVPSP-3.2.3.1  r_core=   1.45541   1.45541   1.35488
- 42.00000  14.00000    170510                znucl, zion, pspdat
    8   11    2    4       600   0.00000      pspcod,pspxc,lmax,lloc,mmax,r2well
    5.99000000000000    3.00000000000000    0.00000000000000   rchrg,fchrg,qchrg
     nproj     2     2     2
     extension_switch     1
  valence charge integrates to:    13.910619929066559     
  pspatm : epsatm=   15.95693586
         --- l  ekb(1:nproj) -->
             0   13.833287    1.350687
             1    8.015347    1.134034
             2    2.765699    0.969071
 pspatm: atomic psp has been read  and splines computed

- pspini: atom type   2  psp file is S.psp8
- pspatm: opening atomic psp file    S.psp8
- S     ONCVPSP-3.2.3.1  r_core=   1.45376   1.45376   1.61851
- 16.00000   6.00000    170504                znucl, zion, pspdat
    8   11    2    4       600   0.00000      pspcod,pspxc,lmax,lloc,mmax,r2well
    5.99000000000000    6.00000000000000    0.00000000000000   rchrg,fchrg,qchrg
     nproj     2     2     2
     extension_switch     1
  valence charge integrates to:    5.9895206683396385     
  pspatm : epsatm=    9.01821879
         --- l  ekb(1:nproj) -->
             0    6.763951    0.574108
             1    3.227080    0.887329
             2   -3.547662   -0.986524
 pspatm: atomic psp has been read  and splines computed

   8.83827710E+02                                ecore*ucvol(ha*bohr**3)
 ==== Info on pseudopotentials ====
  Norm-conserving pseudopotentials
  Number of pseudopotentials ..    2
  Number of types of atoms   ..    2
  Scalar calculation (no spin-orbit term)
  Nonlocal part applied using Legendre polynomials
  Max number of non-local projectors over l and type   2
  Highest angular momentum +1 .......   3
  Max number of (l,n)   components ..   6
  Max number of (l,m,n) components ..   6

 Pseudo-Core Charge Info: 
   Number of radial points for pseudo-core charge .. 2501
   XC core-correction treatment (optnlxccc) ........    1
   Radius for pseudo-core charge for each type ..... 

  - Atom type    1 has pseudo-core radius ..  5.9900
  - Atom type    2 has pseudo-core radius ..  5.9900

 Info on the Q-grid used for form factors in spline form: 
   Number of q-points for radial functions ffspl ..   6638
   Number of q-points for vlspl ...................   6638
   vloc is computed in Reciprocal Space
   model core charge treated in real-space

  XC functional for type 1 is 11
  Pseudo valence available: yes
  XC functional for type 2 is 11
  Pseudo valence available: yes

 symatm: atom number 1 is reached starting at atom
   1  1  1  1  1  1  1  1  1  1  1  1
 symatm: atom number 2 is reached starting at atom
   2  3  3  2  2  3  3  2  2  3  3  2
 symatm: atom number 3 is reached starting at atom
   3  2  2  3  3  2  2  3  3  2  2  3
 wfconv:    14 bands initialized randomly with npw=  2194, for ikpt=     1
_setup2: Arith. and geom. avg. npw (full set) are    4387.000    4387.000
 initro: for itypat=  1, take pseudo charge density from pp file
 initro: for itypat=  2, take pseudo charge density from pp file

================================================================================

 getcut: wavevector=  0.0000  0.0000  0.0000  ngfft=  27  27 135
         ecut(hartree)=     20.000   => boxcut(ratio)=   2.01886

 1/G**2 cut-off applied in the following step : cutoff-mode = CRYSTAL

 1/G**2 cut-off applied in the following step : cutoff-mode = CRYSTAL

 1/G**2 cut-off applied in the following step : cutoff-mode = CRYSTAL

--- !WARNING
src_file: m_drivexc.F90
src_line: 711
message: |
    Density went too small (lower than xc_denpos) at 12208 points
    and was set to xc_denpos =   1.00E-14. Lowest was  -0.34E-05.
    This might be due to (1) too low boxcut or (2) too low ecut for
     pseudopotential core charge, or (3) too low ecut for estimated initial density.
     Possible workarounds : increase ecut, or define the input variable densty,
     with a value larger than the guess for the decay length, or initialize your,
     density with a preliminary LDA or GGA-PBE if you are using a more exotic xc functional.
...


 ITER STEP NUMBER     1
 Max number of non-self-consistent loops: 2
 Total charge density [el/Bohr^3]
      Maximum=    8.9295E-01  at reduced coord.    0.0000    0.0000    0.9704
      Minimum=    6.5594E-05  at reduced coord.    0.9259    0.1111    0.3185
   Integrated=    2.6000E+01

 1/G**2 cut-off applied in the following step : cutoff-mode = CRYSTAL
 ETOT  1  -91.721058849940    -9.172E+01 3.742E-02 1.203E+03
 scprqt: <Vxc>= -1.9377394E-01 hartree

 Simple mixing update:
  residual square of the potential:    466.07272864405996
{SCF_istep: 1 , Vnl|psi>: 140 , wall_time: '  0.62 [s] '} <<< TIME

 ITER STEP NUMBER     2
 Max number of non-self-consistent loops: 2
 Total charge density [el/Bohr^3]
      Maximum=    1.1664E+00  at reduced coord.    0.0741    0.9259    0.9778
      Minimum=    3.1794E-07  at reduced coord.    0.2963    0.0000    0.4444
   Integrated=    2.6000E+01
 ETOT  2  -86.947271545860     4.774E+00 2.074E-03 4.591E+04
 scprqt: <Vxc>= -1.6443689E-01 hartree

 Pulay update with  1 previous iterations:
 mixing of old trial potential: alpha(m:m-4)=  0.135      0.865
{SCF_istep: 2 , Vnl|psi>: 140 , wall_time: '  0.25 [s] '} <<< TIME

 ITER STEP NUMBER     3
 Total charge density [el/Bohr^3]
      Maximum=    1.0112E+00  at reduced coord.    0.0000    0.0000    0.9704
      Minimum=    2.5056E-07  at reduced coord.    0.2593    0.0370    0.4444
   Integrated=    2.6000E+01
 ETOT  3  -91.796098306556    -4.849E+00 7.863E-03 2.166E+03
 scprqt: <Vxc>= -1.7073183E-01 hartree

 Pulay update with  2 previous iterations:
 mixing of old trial potential: alpha(m:m-4)=  0.848     -0.138      0.290
{SCF_istep: 3 , Vnl|psi>: 67 , wall_time: '  0.13 [s] '} <<< TIME

 ITER STEP NUMBER     4
 Total charge density [el/Bohr^3]
      Maximum=    9.6564E-01  at reduced coord.    0.0000    0.0000    0.9704
      Minimum=    5.0587E-08  at reduced coord.    0.2963    0.1852    0.4667
   Integrated=    2.6000E+01
 ETOT  4  -92.038888237495    -2.428E-01 1.459E-03 6.952E+01
 scprqt: <Vxc>= -1.7114087E-01 hartree

 Pulay update with  3 previous iterations:
 mixing of old trial potential: alpha(m:m-4)=  0.654      0.256     -0.579E-01  0.148
{SCF_istep: 4 , Vnl|psi>: 70 , wall_time: '  0.13 [s] '} <<< TIME

 ITER STEP NUMBER     5
 Total charge density [el/Bohr^3]
      Maximum=    9.5806E-01  at reduced coord.    0.0000    0.0000    0.9704
      Minimum=    1.9629E-08  at reduced coord.    0.7037    0.4815    0.4667
   Integrated=    2.6000E+01
 ETOT  5  -92.051775654810    -1.289E-02 8.738E-05 4.304E+00
 scprqt: <Vxc>= -1.7147112E-01 hartree

 Pulay update with  4 previous iterations:
 mixing of old trial potential: alpha(m:m-4)=  0.589      0.251      0.845E-01 -0.102E-01  0.858E-01
{SCF_istep: 5 , Vnl|psi>: 68 , wall_time: '  0.13 [s] '} <<< TIME

 ITER STEP NUMBER     6
 Total charge density [el/Bohr^3]
      Maximum=    9.5981E-01  at reduced coord.    0.0000    0.0000    0.9704
      Minimum=    1.2083E-08  at reduced coord.    0.7037    0.4815    0.4667
   Integrated=    2.6000E+01
 ETOT  6  -92.052387127005    -6.115E-04 3.302E-05 1.713E+00
 scprqt: <Vxc>= -1.7144565E-01 hartree

 Pulay update with  5 previous iterations:
 mixing of old trial potential: alpha(m:m-4)=  0.953     -0.547E-01  0.727E-01  0.257E-02 -0.361E-02
{SCF_istep: 6 , Vnl|psi>: 68 , wall_time: '  0.13 [s] '} <<< TIME

 ITER STEP NUMBER     7
 Total charge density [el/Bohr^3]
      Maximum=    9.6111E-01  at reduced coord.    0.0000    0.0000    0.9704
      Minimum=    1.2219E-08  at reduced coord.    0.7037    0.4815    0.4667
   Integrated=    2.6000E+01
 ETOT  7  -92.051919013229     4.681E-04 2.360E-05 5.945E+00
 scprqt: <Vxc>= -1.7145585E-01 hartree

 Pulay update with  6 previous iterations:
 mixing of old trial potential: alpha(m:m-4)=   1.22     -0.934E-01 -0.140      0.453E-01 -0.213E-01
{SCF_istep: 7 , Vnl|psi>: 70 , wall_time: '  0.14 [s] '} <<< TIME

 ITER STEP NUMBER     8
 Total charge density [el/Bohr^3]
      Maximum=    9.5989E-01  at reduced coord.    0.0000    0.0000    0.9704
      Minimum=    1.2370E-08  at reduced coord.    0.7037    0.4815    0.4667
   Integrated=    2.6000E+01
 ETOT  8  -92.052443942834    -5.249E-04 1.304E-05 7.369E-02
 scprqt: <Vxc>= -1.7159087E-01 hartree

 Pulay update with  7 previous iterations:
 mixing of old trial potential: alpha(m:m-4)=  0.525      0.532      0.890E-02 -0.561E-01  0.899E-03
{SCF_istep: 8 , Vnl|psi>: 70 , wall_time: '  0.13 [s] '} <<< TIME

 ITER STEP NUMBER     9
 Total charge density [el/Bohr^3]
      Maximum=    9.5937E-01  at reduced coord.    0.0000    0.0000    0.9704
      Minimum=    1.2362E-08  at reduced coord.    0.2963    0.1111    0.4815
   Integrated=    2.6000E+01
 ETOT  9  -92.052455362270    -1.142E-05 1.288E-05 1.541E-02
 scprqt: <Vxc>= -1.7158952E-01 hartree

 Pulay update with  7 previous iterations:
 mixing of old trial potential: alpha(m:m-4)=  0.706      0.584E-01  0.269      0.335E-02 -0.260E-01
{SCF_istep: 9 , Vnl|psi>: 68 , wall_time: '  0.14 [s] '} <<< TIME

 ITER STEP NUMBER    10
 Total charge density [el/Bohr^3]
      Maximum=    9.5936E-01  at reduced coord.    0.0000    0.0000    0.9704
      Minimum=    1.2395E-08  at reduced coord.    0.2963    0.1111    0.4815
   Integrated=    2.6000E+01
 ETOT 10  -92.052455517673    -1.554E-07 9.100E-06 3.609E-03
 scprqt: <Vxc>= -1.7159392E-01 hartree

 Pulay update with  7 previous iterations:
 mixing of old trial potential: alpha(m:m-4)=   1.46     -0.221     -0.194     -0.561E-01 -0.230E-02
{SCF_istep: 10 , Vnl|psi>: 70 , wall_time: '  0.14 [s] '} <<< TIME

 ITER STEP NUMBER    11
 Total charge density [el/Bohr^3]
      Maximum=    9.5928E-01  at reduced coord.    0.0000    0.0000    0.9704
      Minimum=    1.2379E-08  at reduced coord.    0.2963    0.1111    0.4815
   Integrated=    2.6000E+01
 ETOT 11  -92.052456079351    -5.617E-07 8.106E-06 2.035E-04
 scprqt: <Vxc>= -1.7159388E-01 hartree

 At SCF step   11, etot is converged : 
  for the second time, diff in etot=  5.617E-07 < toldfe=  1.000E-06
 
 -------------------------------------------------------------------------------------------------
 Ekinetic   = :     3.030553E+01 Ha ,    8.246554E+02 eV
 Evext_l    = :    -4.756519E+02 Ha ,   -1.294315E+04 eV
 Evext_nl   = :     1.155558E+01 Ha ,    3.144434E+02 eV
 Epsp_core  = :     8.513015E-01 Ha ,    2.316509E+01 eV
 Ehartree   = :     2.171928E+02 Ha ,    5.910115E+03 eV
 Exc_ks     = :    -1.665011E+01 Ha ,   -4.530726E+02 eV
 Enn        = :     1.403444E+02 Ha ,    3.818965E+03 eV
 -------------------------------------------------------------------------------------------------
 Etot       = :    -9.205246E+01 Ha ,   -2.504875E+03 eV
 -------------------------------------------------------------------------------------------------

 Cartesian components of stress tensor (hartree/bohr^3)
  sigma(1 1)= -9.82138971E-05  sigma(3 2)=  0.00000000E+00
  sigma(2 2)= -9.82138971E-05  sigma(3 1)=  0.00000000E+00
  sigma(3 3)=  7.24019255E-04  sigma(2 1)=  0.00000000E+00


 fftdatar_write: About to write data to: o_DEN with iomode: IO_MODE_FORTRAN
 IO operation completed. cpu:  0.00 [s] , wall:  0.00 [s] <<< TIME
- Creating netcdf file WITHOUT MPI-IO support: o_GSR.nc
 Integrated electronic density in atomic spheres:
 ------------------------------------------------
 Atom  Sphere_radius  Integrated_density
    1        2.00000         10.65144767
    2        2.00000          3.89056621
    3        2.00000          3.89056621
================================================================================

 ----iterations are completed or convergence reached----


 === Gap info ===
  >>>> For spin  1
   Minimum direct gap =   2.4379 [eV], located at k-point      :   0.0000  0.0000  0.0000
   Fundamental gap    =   2.4379 [eV], Top of valence bands at :   0.0000  0.0000  0.0000
                                       Bottom of conduction at :   0.0000  0.0000  0.0000
 Mean square residual over all n,k,spin=   57.988E-08; max=  81.064E-07
   0.0000  0.0000  0.0000    1  8.10638E-06 kpt; spin; max resid(k); each band:
  4.26E-10 4.61E-10 2.96E-11 2.97E-11 9.32E-10 1.26E-09 1.08E-09 1.31E-09
  5.45E-10 9.98E-10 1.81E-09 2.39E-09 6.78E-10 8.11E-06

   outwf: writing wavefunctions to: o_WFK with iomode: IO_MODE_FORTRAN_MASTER
 WFK output completed. cpu:  0.00 [s] , wall:  0.00 [s] <<< TIME
 prteigrs : about to open file o_EIG
 Fermi (or HOMO) energy (hartree) =  -0.05637   Average Vxc (hartree)=  -0.17159
 Eigenvalues (hartree) for nkpt=   1  k points:
 kpt#   1, nband= 14, wtk=  1.00000, kpt=  0.0000  0.0000  0.0000 (reduced coord)
  -2.23960   -1.28725   -1.28626   -1.28626   -0.57505   -0.54719   -0.24353   -0.14139
  -0.11637   -0.11637   -0.09145   -0.09145   -0.05637    0.03322
 Total charge density [el/Bohr^3]
      Maximum=    9.5928E-01  at reduced coord.    0.0000    0.0000    0.9704
 Next maximum=    9.5928E-01  at reduced coord.    0.0000    0.0000    0.0296
      Minimum=    1.2379E-08  at reduced coord.    0.2963    0.1111    0.4815
 Next minimum=    1.2379E-08  at reduced coord.    0.5926    0.1111    0.4815
   Integrated=    2.6000E+01

 Cartesian components of stress tensor (hartree/bohr^3)
  sigma(1 1)= -9.82138971E-05  sigma(3 2)=  0.00000000E+00
  sigma(2 2)= -9.82138971E-05  sigma(3 1)=  0.00000000E+00
  sigma(3 3)=  7.24019255E-04  sigma(2 1)=  0.00000000E+00

-Cartesian components of stress tensor (GPa)         [Pressure= -5.1741E+00 GPa]
- sigma(1 1)= -2.88955213E+00  sigma(3 2)=  0.00000000E+00
- sigma(2 2)= -2.88955213E+00  sigma(3 1)=  0.00000000E+00
- sigma(3 3)=  2.13013783E+01  sigma(2 1)=  0.00000000E+00

== END DATASET(S) ==============================================================
================================================================================
  
 -outvars: echo values of variables after computation  --------
 
 These variables are accessible in NetCDF format (o_OUT.nc)

            acell      6.0300000000E+00  6.0300000000E+00  3.2970000000E+01 Bohr
              amu      9.59400000E+01  3.20660000E+01
           diemac      2.00000000E+00
             ecut      2.00000000E+01 Hartree
           etotal     -9.2052456079E+01
            fcart     -0.0000000000E+00 -0.0000000000E+00 -4.6259292693E-18
                      -1.6499894601E-27 -8.5735967304E-27  7.3886828425E-02
                       1.6499894601E-27  8.5735967304E-27 -7.3886828425E-02
-          fftalg         112
           istwfk        2
              ixc          11
           kptopt           0
P           mkmem           1
            natom           3
            nband          14
            ngfft          27      27     135
             nkpt           1
            nstep          20
             nsym          12
           ntypat           2
              occ      2.000000  2.000000  2.000000  2.000000  2.000000  2.000000
                       2.000000  2.000000  2.000000  2.000000  2.000000  2.000000
                       2.000000  0.000000
            rprim      8.6602540378E-01 -5.0000000000E-01  0.0000000000E+00
                       8.6602540378E-01  5.0000000000E-01  0.0000000000E+00
                       0.0000000000E+00  0.0000000000E+00  1.0000000000E+00
          spgroup         187
           strten     -9.8213897113E-05 -9.8213897113E-05  7.2401925468E-04
                       0.0000000000E+00  0.0000000000E+00  0.0000000000E+00
           symrel      1  0  0   0  1  0   0  0  1       1 -1  0   0 -1  0   0  0 -1
                       0 -1  0   1 -1  0   0  0 -1      -1  0  0  -1  1  0   0  0  1
                      -1  1  0  -1  0  0   0  0  1       0  1  0   1  0  0   0  0 -1
                       1  0  0   0  1  0   0  0 -1       1 -1  0   0 -1  0   0  0  1
                       0 -1  0   1 -1  0   0  0  1      -1  0  0  -1  1  0   0  0 -1
                      -1  1  0  -1  0  0   0  0 -1       0  1  0   1  0  0   0  0  1
           toldfe      1.00000000E-06 Hartree
            typat      1  2  2
           xangst      0.0000000000E+00  0.0000000000E+00  0.0000000000E+00
                       1.8422892411E+00  0.0000000000E+00 -1.7098033116E+00
                       1.8422892411E+00  0.0000000000E+00  1.7098033116E+00
            xcart      0.0000000000E+00  0.0000000000E+00  0.0000000000E+00
                       3.4814221232E+00  0.0000000000E+00 -3.2310600000E+00
                       3.4814221232E+00  0.0000000000E+00  3.2310600000E+00
             xred      0.0000000000E+00  0.0000000000E+00  0.0000000000E+00
                       3.3333333333E-01  3.3333333333E-01 -9.8000000000E-02
                       3.3333333333E-01  3.3333333333E-01  9.8000000000E-02
            znucl       42.00000   16.00000

================================================================================
  

================================================================================

 Suggested references for the acknowledgment of ABINIT usage.

 The users of ABINIT have little formal obligations with respect to the ABINIT group
 (those specified in the GNU General Public License, http://www.gnu.org/copyleft/gpl.txt).
 However, it is common practice in the scientific literature,
 to acknowledge the efforts of people that have made the research possible.
 In this spirit, please find below suggested citations of work written by ABINIT developers,
 corresponding to implementations inside of ABINIT that you have used in the present run.
 Note also that it will be of great value to readers of publications presenting these results,
 to read papers enabling them to understand the theoretical formalism and details
 of the ABINIT implementation.
 For information on why they are suggested, see also https://docs.abinit.org/theory/acknowledgments.
-
- [1] The Abinit project: Impact, environment and recent developments.
- Computer Phys. Comm. 248, 107042 (2020).
- X.Gonze, B. Amadon, G. Antonius, F.Arnardi, L.Baguet, J.-M.Beuken,
- J.Bieder, F.Bottin, J.Bouchet, E.Bousquet, N.Brouwer, F.Bruneval,
- G.Brunin, T.Cavignac, J.-B. Charraud, Wei Chen, M.Cote, S.Cottenier,
- J.Denier, G.Geneste, Ph.Ghosez, M.Giantomassi, Y.Gillet, O.Gingras,
- D.R.Hamann, G.Hautier, Xu He, N.Helbig, N.Holzwarth, Y.Jia, F.Jollet,
- W.Lafargue-Dit-Hauret, K.Lejaeghere, M.A.L.Marques, A.Martin, C.Martins,
- H.P.C. Miranda, F.Naccarato, K. Persson, G.Petretto, V.Planes, Y.Pouillon,
- S.Prokhorenko, F.Ricci, G.-M.Rignanese, A.H.Romero, M.M.Schmitt, M.Torrent,
- M.J.van Setten, B.Van Troeye, M.J.Verstraete, G.Zerah and J.W.Zwanzig
- Comment: the fifth generic paper describing the ABINIT project.
- Note that a version of this paper, that is not formatted for Computer Phys. Comm. 
- is available at https://www.abinit.org/sites/default/files/ABINIT20.pdf .
- The licence allows the authors to put it on the Web.
- DOI and bibtex: see https://docs.abinit.org/theory/bibliography/#gonze2020
-
- [2] Optimized norm-conserving Vanderbilt pseudopotentials.
- D.R. Hamann, Phys. Rev. B 88, 085117 (2013).
- Comment: Some pseudopotential generated using the ONCVPSP code were used.
- DOI and bibtex: see https://docs.abinit.org/theory/bibliography/#hamann2013
-
- [3] ABINIT: Overview, and focus on selected capabilities
- J. Chem. Phys. 152, 124102 (2020).
- A. Romero, D.C. Allan, B. Amadon, G. Antonius, T. Applencourt, L.Baguet,
- J.Bieder, F.Bottin, J.Bouchet, E.Bousquet, F.Bruneval,
- G.Brunin, D.Caliste, M.Cote,
- J.Denier, C. Dreyer, Ph.Ghosez, M.Giantomassi, Y.Gillet, O.Gingras,
- D.R.Hamann, G.Hautier, F.Jollet, G. Jomard,
- A.Martin, 
- H.P.C. Miranda, F.Naccarato, G.Petretto, N.A. Pike, V.Planes,
- S.Prokhorenko, T. Rangel, F.Ricci, G.-M.Rignanese, M.Royo, M.Stengel, M.Torrent,
- M.J.van Setten, B.Van Troeye, M.J.Verstraete, J.Wiktor, J.W.Zwanziger, and X.Gonze.
- Comment: a global overview of ABINIT, with focus on selected capabilities .
- Note that a version of this paper, that is not formatted for J. Chem. Phys 
- is available at https://www.abinit.org/sites/default/files/ABINIT20_JPC.pdf .
- The licence allows the authors to put it on the Web.
- DOI and bibtex: see https://docs.abinit.org/theory/bibliography/#romero2020
-
- [4] Recent developments in the ABINIT software package.
- Computer Phys. Comm. 205, 106 (2016).
- X.Gonze, F.Jollet, F.Abreu Araujo, D.Adams, B.Amadon, T.Applencourt,
- C.Audouze, J.-M.Beuken, J.Bieder, A.Bokhanchuk, E.Bousquet, F.Bruneval
- D.Caliste, M.Cote, F.Dahm, F.Da Pieve, M.Delaveau, M.Di Gennaro,
- B.Dorado, C.Espejo, G.Geneste, L.Genovese, A.Gerossier, M.Giantomassi,
- Y.Gillet, D.R.Hamann, L.He, G.Jomard, J.Laflamme Janssen, S.Le Roux,
- A.Levitt, A.Lherbier, F.Liu, I.Lukacevic, A.Martin, C.Martins,
- M.J.T.Oliveira, S.Ponce, Y.Pouillon, T.Rangel, G.-M.Rignanese,
- A.H.Romero, B.Rousseau, O.Rubel, A.A.Shukri, M.Stankovski, M.Torrent,
- M.J.Van Setten, B.Van Troeye, M.J.Verstraete, D.Waroquier, J.Wiktor,
- B.Xu, A.Zhou, J.W.Zwanziger.
- Comment: the fourth generic paper describing the ABINIT project.
- Note that a version of this paper, that is not formatted for Computer Phys. Comm. 
- is available at https://www.abinit.org/sites/default/files/ABINIT16.pdf .
- The licence allows the authors to put it on the Web.
- DOI and bibtex: see https://docs.abinit.org/theory/bibliography/#gonze2016
-
- And optionally:
-
- [5] ABINIT: First-principles approach of materials and nanosystem properties.
- Computer Phys. Comm. 180, 2582-2615 (2009).
- X. Gonze, B. Amadon, P.-M. Anglade, J.-M. Beuken, F. Bottin, P. Boulanger, F. Bruneval,
- D. Caliste, R. Caracas, M. Cote, T. Deutsch, L. Genovese, Ph. Ghosez, M. Giantomassi
- S. Goedecker, D.R. Hamann, P. Hermet, F. Jollet, G. Jomard, S. Leroux, M. Mancini, S. Mazevet,
- M.J.T. Oliveira, G. Onida, Y. Pouillon, T. Rangel, G.-M. Rignanese, D. Sangalli, R. Shaltaf,
- M. Torrent, M.J. Verstraete, G. Zerah, J.W. Zwanziger
- Comment: the third generic paper describing the ABINIT project.
- Note that a version of this paper, that is not formatted for Computer Phys. Comm. 
- is available at https://www.abinit.org/sites/default/files/ABINIT_CPC_v10.pdf .
- The licence allows the authors to put it on the Web.
- DOI and bibtex: see https://docs.abinit.org/theory/bibliography/#gonze2009
 Proc.   0 individual time (sec): cpu=          3.7  wall=          3.9

 Calculation completed.
.Delivered   1 WARNINGs and   2 COMMENTs to log file.

--- !FinalSummary
program: abinit
version: 9.6.2
start_datetime: Sat Nov 12 16:57:44 2022
end_datetime: Sat Nov 12 16:57:48 2022
overall_cpu_time:           3.7
overall_wall_time:           3.9
exit_requested_by_user: no 
timelimit: 0
pseudos: 
    Mo  : 228091cb5782e08cb8d68936b3c7e57b
    S   : bfa270bf1631b0df1a1d98e9ab044d60
usepaw: 0
mpi_procs: 1
omp_threads: 1
num_warnings: 1
num_comments: 2
...
