
.Version 9.6.2 of ABINIT 
.(MPI version, prepared for a x86_64_linux_gnu11.2 computer) 

.Copyright (C) 1998-2021 ABINIT group . 
 ABINIT comes with ABSOLUTELY NO WARRANTY.
 It is free software, and you are welcome to redistribute it
 under certain conditions (GNU General Public License,
 see ~abinit/COPYING or http://www.gnu.org/copyleft/gpl.txt).

 ABINIT is a project of the Universite Catholique de Louvain,
 Corning Inc. and other collaborators, see ~abinit/doc/developers/contributors.txt .
 Please read https://docs.abinit.org/theory/acknowledgments for suggested
 acknowledgments of the ABINIT effort.
 For more information, see https://www.abinit.org .

.Starting date : Sat 10 Dec 2022.
- ( at 17h11 )
  
- input  file    -> tbase3
- output file    -> tbase3.abo
- root for input  files -> i
- root for output files -> o


 Symmetries : space group P-6 m 2 (#187); Bravais hP (primitive hexag.)
================================================================================
 Values of the parameters that define the memory need of the present run
     intxc =       0    ionmov =       0      iscf =       7    lmnmax =       6
     lnmax =       6     mgfft =     135  mpssoang =       3    mqgrid =    6638
     natom =       3  nloc_mem =       1    nspden =       1   nspinor =       1
    nsppol =       1      nsym =      12    n1xccc =    2501    ntypat =       2
    occopt =       1   xclevel =       2
-    mband =          14        mffmem =           1         mkmem =           1
       mpw =        2194          nfft =       98415          nkpt =           1
================================================================================
P This job should need less than                      34.059 Mbytes of memory.
  Rough estimation (10% accuracy) of disk space for files :
_ WF disk file :      0.471 Mbytes ; DEN or POT disk file :      0.753 Mbytes.
================================================================================

--------------------------------------------------------------------------------
------------- Echo of variables that govern the present computation ------------
--------------------------------------------------------------------------------
-
- outvars: echo of selected default values                                      
-   iomode0 =  0 , fftalg0 =112 , wfoptalg0 =  0
-
- outvars: echo of global parameters not present in the input file              
-  max_nthreads =    0
-
 -outvars: echo values of preprocessed input variables --------
            acell      6.0300000000E+00  6.0300000000E+00  3.2970000000E+01 Bohr
              amu      9.59400000E+01  3.20660000E+01
           diemac      2.00000000E+00
             ecut      2.00000000E+01 Hartree
-          fftalg         112
           istwfk        2
              ixc          11
           kptopt           0
P           mkmem           1
            natom           3
            nband          14
            ngfft          27      27     135
             nkpt           1
            nstep          20
             nsym          12
           ntypat           2
              occ      2.000000  2.000000  2.000000  2.000000  2.000000  2.000000
                       2.000000  2.000000  2.000000  2.000000  2.000000  2.000000
                       2.000000  0.000000
            rprim      8.6602540378E-01 -5.0000000000E-01  0.0000000000E+00
                       8.6602540378E-01  5.0000000000E-01  0.0000000000E+00
                       0.0000000000E+00  0.0000000000E+00  1.0000000000E+00
          spgroup         187
           symrel      1  0  0   0  1  0   0  0  1       1 -1  0   0 -1  0   0  0 -1
                       0 -1  0   1 -1  0   0  0 -1      -1  0  0  -1  1  0   0  0  1
                      -1  1  0  -1  0  0   0  0  1       0  1  0   1  0  0   0  0 -1
                       1  0  0   0  1  0   0  0 -1       1 -1  0   0 -1  0   0  0  1
                       0 -1  0   1 -1  0   0  0  1      -1  0  0  -1  1  0   0  0 -1
                      -1  1  0  -1  0  0   0  0 -1       0  1  0   1  0  0   0  0  1
           toldfe      1.00000000E-06 Hartree
            typat      1  2  2
           xangst      0.0000000000E+00  0.0000000000E+00  0.0000000000E+00
                       1.8422892411E+00  0.0000000000E+00 -6.9787890269E-01
                       1.8422892411E+00  0.0000000000E+00  6.9787890269E-01
            xcart      0.0000000000E+00  0.0000000000E+00  0.0000000000E+00
                       3.4814221232E+00  0.0000000000E+00 -1.3188000000E+00
                       3.4814221232E+00  0.0000000000E+00  1.3188000000E+00
             xred      0.0000000000E+00  0.0000000000E+00  0.0000000000E+00
                       3.3333333333E-01  3.3333333333E-01 -4.0000000000E-02
                       3.3333333333E-01  3.3333333333E-01  4.0000000000E-02
            znucl       42.00000   16.00000

================================================================================

 chkinp: Checking input parameters for consistency.

================================================================================
== DATASET  1 ==================================================================
-   mpi_nproc: 1, omp_nthreads: -1 (-1 if OMP is not activated)


--- !DatasetInfo
iteration_state: {dtset: 1, }
dimensions: {natom: 3, nkpt: 1, mband: 14, nsppol: 1, nspinor: 1, nspden: 1, mpw: 2194, }
cutoff_energies: {ecut:  20.0, pawecutdg:  -1.0, }
electrons: {nelect:   2.60000000E+01, charge:   0.00000000E+00, occopt:   1.00000000E+00, tsmear:   1.00000000E-02, }
meta: {optdriver: 0, ionmov: 0, optcell: 0, iscf: 7, paral_kgb: 0, }
...

 Exchange-correlation functional for the present dataset will be:
  GGA: Perdew-Burke-Ernzerhof functional - ixc=11
 Citation for XC functional:
  J.P.Perdew, K.Burke, M.Ernzerhof, PRL 77, 3865 (1996)

 Real(R)+Recip(G) space primitive vectors, cartesian coordinates (Bohr,Bohr^-1):
 R(1)=  5.2221332 -3.0150000  0.0000000  G(1)=  0.0957463 -0.1658375  0.0000000
 R(2)=  5.2221332  3.0150000  0.0000000  G(2)=  0.0957463  0.1658375  0.0000000
 R(3)=  0.0000000  0.0000000 32.9700000  G(3)=  0.0000000  0.0000000  0.0303306
 Unit cell volume ucvol=  1.0382076E+03 bohr^3
 Angles (23,13,12)=  9.00000000E+01  9.00000000E+01  6.00000000E+01 degrees

 getcut: wavevector=  0.0000  0.0000  0.0000  ngfft=  27  27 135
         ecut(hartree)=     20.000   => boxcut(ratio)=   2.01886

--- Pseudopotential description ------------------------------------------------
- pspini: atom type   1  psp file is Mo.psp8
- pspatm: opening atomic psp file    Mo.psp8
- Mo    ONCVPSP-3.2.3.1  r_core=   1.45541   1.45541   1.35488
- 42.00000  14.00000    170510                znucl, zion, pspdat
    8   11    2    4       600   0.00000      pspcod,pspxc,lmax,lloc,mmax,r2well
    5.99000000000000    3.00000000000000    0.00000000000000   rchrg,fchrg,qchrg
     nproj     2     2     2
     extension_switch     1
  pspatm : epsatm=   15.95693586
         --- l  ekb(1:nproj) -->
             0   13.833287    1.350687
             1    8.015347    1.134034
             2    2.765699    0.969071
 pspatm: atomic psp has been read  and splines computed

- pspini: atom type   2  psp file is S.psp8
- pspatm: opening atomic psp file    S.psp8
- S     ONCVPSP-3.2.3.1  r_core=   1.45376   1.45376   1.61851
- 16.00000   6.00000    170504                znucl, zion, pspdat
    8   11    2    4       600   0.00000      pspcod,pspxc,lmax,lloc,mmax,r2well
    5.99000000000000    6.00000000000000    0.00000000000000   rchrg,fchrg,qchrg
     nproj     2     2     2
     extension_switch     1
  pspatm : epsatm=    9.01821879
         --- l  ekb(1:nproj) -->
             0    6.763951    0.574108
             1    3.227080    0.887329
             2   -3.547662   -0.986524
 pspatm: atomic psp has been read  and splines computed

   8.83827710E+02                                ecore*ucvol(ha*bohr**3)
--------------------------------------------------------------------------------

_setup2: Arith. and geom. avg. npw (full set) are    4387.000    4387.000

================================================================================

--- !BeginCycle
iteration_state: {dtset: 1, }
solver: {iscf: 7, nstep: 20, nline: 4, wfoptalg: 0, }
tolerances: {toldfe: 1.00E-06, }
...

     iter   Etot(hartree)      deltaE(h)  residm     vres2
 ETOT  1  -90.689211417437    -9.069E+01 5.084E-02 3.121E+03
 ETOT  2  -90.107706696992     5.815E-01 2.807E-02 8.458E+03
 ETOT  3  -91.183106578319    -1.075E+00 1.807E-02 2.388E+03
 ETOT  4  -91.160822049939     2.228E-02 2.924E-03 1.891E+03
 ETOT  5  -91.209997986059    -4.918E-02 6.756E-04 5.515E+02
 ETOT  6  -91.236126151596    -2.613E-02 1.919E-03 3.913E+01
 ETOT  7  -91.237946351450    -1.820E-03 1.454E-04 4.746E+01
 ETOT  8  -90.903077151508     3.349E-01 1.850E-03 1.181E+04
 ETOT  9  -91.006024350065    -1.029E-01 2.094E-03 7.555E+03
 ETOT 10  -90.959501915667     4.652E-02 1.099E-03 8.945E+03
 ETOT 11  -91.215019956712    -2.555E-01 6.700E-04 1.195E+03
 ETOT 12  -91.222143219371    -7.123E-03 9.736E-05 7.829E+02
 ETOT 13  -91.223848955769    -1.706E-03 1.275E-05 6.526E+02
 ETOT 14  -91.064079253535     1.598E-01 4.947E-06 5.062E+03
 ETOT 15  -91.222084815409    -1.580E-01 1.413E-05 7.129E+02
 ETOT 16  -91.222574074203    -4.893E-04 6.659E-05 7.062E+02
 ETOT 17  -91.223213344260    -6.393E-04 1.450E-05 6.571E+02
 ETOT 18  -91.223372281214    -1.589E-04 1.361E-05 6.449E+02
 ETOT 19  -91.223166701786     2.056E-04 3.628E-06 6.504E+02
 ETOT 20  -91.223361172991    -1.945E-04 2.176E-06 6.373E+02

 Cartesian components of stress tensor (hartree/bohr^3)
  sigma(1 1)= -1.24246573E-03  sigma(3 2)=  0.00000000E+00
  sigma(2 2)= -1.24246573E-03  sigma(3 1)=  0.00000000E+00
  sigma(3 3)= -3.66949581E-03  sigma(2 1)=  0.00000000E+00


 scprqt:  WARNING -
  nstep=   20 was not enough SCF cycles to converge;
  maximum energy difference=  1.945E-04 exceeds toldfe=  1.000E-06


--- !ResultsGS
iteration_state: {dtset: 1, }
comment   : Summary of ground state results
lattice_vectors:
- [  5.2221332,  -3.0150000,   0.0000000, ]
- [  5.2221332,   3.0150000,   0.0000000, ]
- [  0.0000000,   0.0000000,  32.9700000, ]
lattice_lengths: [   6.03000,    6.03000,   32.97000, ]
lattice_angles: [ 90.000,  90.000,  60.000, ] # degrees, (23, 13, 12)
lattice_volume:   1.0382076E+03
convergence: {deltae: -1.945E-04, res2:  6.373E+02, residm:  2.176E-06, diffor: null, }
etotal    :  -9.12233612E+01
entropy   :   0.00000000E+00
fermie    :   7.66541021E-02
cartesian_stress_tensor: # hartree/bohr^3
- [ -1.24246573E-03,   0.00000000E+00,   0.00000000E+00, ]
- [  0.00000000E+00,  -1.24246573E-03,   0.00000000E+00, ]
- [  0.00000000E+00,   0.00000000E+00,  -3.66949581E-03, ]
pressure_GPa:   6.0356E+01
xred      :
- [  0.0000E+00,   0.0000E+00,   0.0000E+00, Mo]
- [  3.3333E-01,   3.3333E-01,  -4.0000E-02,  S]
- [  3.3333E-01,   3.3333E-01,   4.0000E-02,  S]
cartesian_forces: # hartree/bohr
- [ -0.00000000E+00,  -0.00000000E+00,  -0.00000000E+00, ]
- [ -3.29997892E-27,  -1.71471935E-26,  -1.28191464E+00, ]
- [  3.29997892E-27,   1.71471935E-26,   1.28191464E+00, ]
force_length_stats: {min:   0.00000000E+00, max:   1.28191464E+00, mean:   8.54609757E-01, }
...

 Integrated electronic density in atomic spheres:
 ------------------------------------------------
 Atom  Sphere_radius  Integrated_density
    1        2.00000         11.73559012
    2        2.00000          5.63999712
    3        2.00000          5.63999712
================================================================================

 ----iterations are completed or convergence reached----

 Mean square residual over all n,k,spin=   15.891E-08; max=  21.756E-07
 reduced coordinates (array xred) for    3 atoms
       0.000000000000      0.000000000000      0.000000000000
       0.333333333333      0.333333333333     -0.040000000000
       0.333333333333      0.333333333333      0.040000000000
 rms dE/dt=  1.9924E+01; max dE/dt=  4.2265E+01; dE/dt below (all hartree)
    1       0.000000000000      0.000000000000      0.000000000000
    2      -0.000000000000      0.000000000000     42.264725533996
    3       0.000000000000     -0.000000000000    -42.264725533996

 cartesian coordinates (angstrom) at end:
    1      0.00000000000000     0.00000000000000     0.00000000000000
    2      1.84228924108556     0.00000000000000    -0.69787890268849
    3      1.84228924108556     0.00000000000000     0.69787890268849

 cartesian forces (hartree/bohr) at end:
    1     -0.00000000000000    -0.00000000000000    -0.00000000000000
    2     -0.00000000000000    -0.00000000000000    -1.28191463554735
    3      0.00000000000000     0.00000000000000     1.28191463554735
 frms,max,avg= 6.0430035E-01 1.2819146E+00   0.000E+00  0.000E+00  0.000E+00 h/b

 cartesian forces (eV/Angstrom) at end:
    1     -0.00000000000000    -0.00000000000000    -0.00000000000000
    2     -0.00000000000000    -0.00000000000000   -65.91869539615361
    3      0.00000000000000     0.00000000000000    65.91869539615361
 frms,max,avg= 3.1074371E+01 6.5918695E+01   0.000E+00  0.000E+00  0.000E+00 e/A
 length scales=  6.030000000000  6.030000000000 32.970000000000 bohr
              =  3.190938567798  3.190938567798 17.446972567212 angstroms
 prteigrs : about to open file o_EIG
 Fermi (or HOMO) energy (hartree) =   0.07665   Average Vxc (hartree)=  -0.13355
 Eigenvalues (hartree) for nkpt=   1  k points:
 kpt#   1, nband= 14, wtk=  1.00000, kpt=  0.0000  0.0000  0.0000 (reduced coord)
  -2.27848   -1.36887   -1.36887   -1.30852   -0.89249   -0.47183   -0.46993   -0.46993
  -0.37659   -0.20048   -0.20048   -0.00013    0.07665    0.07740

--- !EnergyTerms
iteration_state     : {dtset: 1, }
comment             : Components of total free energy in Hartree
kinetic             :  3.44103142574430E+01
hartree             :  2.83872004477557E+02
xc                  : -1.78314709934021E+01
Ewald energy        :  2.05589286811247E+02
psp_core            :  8.51301522853731E-01
local_psp           : -6.09923196691954E+02
non_local_psp       :  1.18083994432653E+01
total_energy        : -9.12233611729908E+01
total_energy_eV     : -2.48231389787767E+03
band_energy         : -1.86598805296722E+01
...


 Cartesian components of stress tensor (hartree/bohr^3)
  sigma(1 1)= -1.24246573E-03  sigma(3 2)=  0.00000000E+00
  sigma(2 2)= -1.24246573E-03  sigma(3 1)=  0.00000000E+00
  sigma(3 3)= -3.66949581E-03  sigma(2 1)=  0.00000000E+00

-Cartesian components of stress tensor (GPa)         [Pressure=  6.0356E+01 GPa]
- sigma(1 1)= -3.65545977E+01  sigma(3 2)=  0.00000000E+00
- sigma(2 2)= -3.65545977E+01  sigma(3 1)=  0.00000000E+00
- sigma(3 3)= -1.07960276E+02  sigma(2 1)=  0.00000000E+00

== END DATASET(S) ==============================================================
================================================================================
  
 -outvars: echo values of variables after computation  --------
            acell      6.0300000000E+00  6.0300000000E+00  3.2970000000E+01 Bohr
              amu      9.59400000E+01  3.20660000E+01
           diemac      2.00000000E+00
             ecut      2.00000000E+01 Hartree
           etotal     -9.1223361173E+01
            fcart     -0.0000000000E+00 -0.0000000000E+00 -0.0000000000E+00
                      -3.2999789202E-27 -1.7147193461E-26 -1.2819146355E+00
                       3.2999789202E-27  1.7147193461E-26  1.2819146355E+00
-          fftalg         112
           istwfk        2
              ixc          11
           kptopt           0
P           mkmem           1
            natom           3
            nband          14
            ngfft          27      27     135
             nkpt           1
            nstep          20
             nsym          12
           ntypat           2
              occ      2.000000  2.000000  2.000000  2.000000  2.000000  2.000000
                       2.000000  2.000000  2.000000  2.000000  2.000000  2.000000
                       2.000000  0.000000
            rprim      8.6602540378E-01 -5.0000000000E-01  0.0000000000E+00
                       8.6602540378E-01  5.0000000000E-01  0.0000000000E+00
                       0.0000000000E+00  0.0000000000E+00  1.0000000000E+00
          spgroup         187
           strten     -1.2424657325E-03 -1.2424657325E-03 -3.6694958064E-03
                       0.0000000000E+00  0.0000000000E+00  0.0000000000E+00
           symrel      1  0  0   0  1  0   0  0  1       1 -1  0   0 -1  0   0  0 -1
                       0 -1  0   1 -1  0   0  0 -1      -1  0  0  -1  1  0   0  0  1
                      -1  1  0  -1  0  0   0  0  1       0  1  0   1  0  0   0  0 -1
                       1  0  0   0  1  0   0  0 -1       1 -1  0   0 -1  0   0  0  1
                       0 -1  0   1 -1  0   0  0  1      -1  0  0  -1  1  0   0  0 -1
                      -1  1  0  -1  0  0   0  0 -1       0  1  0   1  0  0   0  0  1
           toldfe      1.00000000E-06 Hartree
            typat      1  2  2
           xangst      0.0000000000E+00  0.0000000000E+00  0.0000000000E+00
                       1.8422892411E+00  0.0000000000E+00 -6.9787890269E-01
                       1.8422892411E+00  0.0000000000E+00  6.9787890269E-01
            xcart      0.0000000000E+00  0.0000000000E+00  0.0000000000E+00
                       3.4814221232E+00  0.0000000000E+00 -1.3188000000E+00
                       3.4814221232E+00  0.0000000000E+00  1.3188000000E+00
             xred      0.0000000000E+00  0.0000000000E+00  0.0000000000E+00
                       3.3333333333E-01  3.3333333333E-01 -4.0000000000E-02
                       3.3333333333E-01  3.3333333333E-01  4.0000000000E-02
            znucl       42.00000   16.00000

================================================================================


- Timing analysis has been suppressed with timopt=0



================================================================================

 Suggested references for the acknowledgment of ABINIT usage.

 The users of ABINIT have little formal obligations with respect to the ABINIT group
 (those specified in the GNU General Public License, http://www.gnu.org/copyleft/gpl.txt).
 However, it is common practice in the scientific literature,
 to acknowledge the efforts of people that have made the research possible.
 In this spirit, please find below suggested citations of work written by ABINIT developers,
 corresponding to implementations inside of ABINIT that you have used in the present run.
 Note also that it will be of great value to readers of publications presenting these results,
 to read papers enabling them to understand the theoretical formalism and details
 of the ABINIT implementation.
 For information on why they are suggested, see also https://docs.abinit.org/theory/acknowledgments.
-
- [1] The Abinit project: Impact, environment and recent developments.
- Computer Phys. Comm. 248, 107042 (2020).
- X.Gonze, B. Amadon, G. Antonius, F.Arnardi, L.Baguet, J.-M.Beuken,
- J.Bieder, F.Bottin, J.Bouchet, E.Bousquet, N.Brouwer, F.Bruneval,
- G.Brunin, T.Cavignac, J.-B. Charraud, Wei Chen, M.Cote, S.Cottenier,
- J.Denier, G.Geneste, Ph.Ghosez, M.Giantomassi, Y.Gillet, O.Gingras,
- D.R.Hamann, G.Hautier, Xu He, N.Helbig, N.Holzwarth, Y.Jia, F.Jollet,
- W.Lafargue-Dit-Hauret, K.Lejaeghere, M.A.L.Marques, A.Martin, C.Martins,
- H.P.C. Miranda, F.Naccarato, K. Persson, G.Petretto, V.Planes, Y.Pouillon,
- S.Prokhorenko, F.Ricci, G.-M.Rignanese, A.H.Romero, M.M.Schmitt, M.Torrent,
- M.J.van Setten, B.Van Troeye, M.J.Verstraete, G.Zerah and J.W.Zwanzig
- Comment: the fifth generic paper describing the ABINIT project.
- Note that a version of this paper, that is not formatted for Computer Phys. Comm. 
- is available at https://www.abinit.org/sites/default/files/ABINIT20.pdf .
- The licence allows the authors to put it on the Web.
- DOI and bibtex: see https://docs.abinit.org/theory/bibliography/#gonze2020
-
- [2] Optimized norm-conserving Vanderbilt pseudopotentials.
- D.R. Hamann, Phys. Rev. B 88, 085117 (2013).
- Comment: Some pseudopotential generated using the ONCVPSP code were used.
- DOI and bibtex: see https://docs.abinit.org/theory/bibliography/#hamann2013
-
- [3] ABINIT: Overview, and focus on selected capabilities
- J. Chem. Phys. 152, 124102 (2020).
- A. Romero, D.C. Allan, B. Amadon, G. Antonius, T. Applencourt, L.Baguet,
- J.Bieder, F.Bottin, J.Bouchet, E.Bousquet, F.Bruneval,
- G.Brunin, D.Caliste, M.Cote,
- J.Denier, C. Dreyer, Ph.Ghosez, M.Giantomassi, Y.Gillet, O.Gingras,
- D.R.Hamann, G.Hautier, F.Jollet, G. Jomard,
- A.Martin, 
- H.P.C. Miranda, F.Naccarato, G.Petretto, N.A. Pike, V.Planes,
- S.Prokhorenko, T. Rangel, F.Ricci, G.-M.Rignanese, M.Royo, M.Stengel, M.Torrent,
- M.J.van Setten, B.Van Troeye, M.J.Verstraete, J.Wiktor, J.W.Zwanziger, and X.Gonze.
- Comment: a global overview of ABINIT, with focus on selected capabilities .
- Note that a version of this paper, that is not formatted for J. Chem. Phys 
- is available at https://www.abinit.org/sites/default/files/ABINIT20_JPC.pdf .
- The licence allows the authors to put it on the Web.
- DOI and bibtex: see https://docs.abinit.org/theory/bibliography/#romero2020
-
- [4] Recent developments in the ABINIT software package.
- Computer Phys. Comm. 205, 106 (2016).
- X.Gonze, F.Jollet, F.Abreu Araujo, D.Adams, B.Amadon, T.Applencourt,
- C.Audouze, J.-M.Beuken, J.Bieder, A.Bokhanchuk, E.Bousquet, F.Bruneval
- D.Caliste, M.Cote, F.Dahm, F.Da Pieve, M.Delaveau, M.Di Gennaro,
- B.Dorado, C.Espejo, G.Geneste, L.Genovese, A.Gerossier, M.Giantomassi,
- Y.Gillet, D.R.Hamann, L.He, G.Jomard, J.Laflamme Janssen, S.Le Roux,
- A.Levitt, A.Lherbier, F.Liu, I.Lukacevic, A.Martin, C.Martins,
- M.J.T.Oliveira, S.Ponce, Y.Pouillon, T.Rangel, G.-M.Rignanese,
- A.H.Romero, B.Rousseau, O.Rubel, A.A.Shukri, M.Stankovski, M.Torrent,
- M.J.Van Setten, B.Van Troeye, M.J.Verstraete, D.Waroquier, J.Wiktor,
- B.Xu, A.Zhou, J.W.Zwanziger.
- Comment: the fourth generic paper describing the ABINIT project.
- Note that a version of this paper, that is not formatted for Computer Phys. Comm. 
- is available at https://www.abinit.org/sites/default/files/ABINIT16.pdf .
- The licence allows the authors to put it on the Web.
- DOI and bibtex: see https://docs.abinit.org/theory/bibliography/#gonze2016
-
- And optionally:
-
- [5] ABINIT: First-principles approach of materials and nanosystem properties.
- Computer Phys. Comm. 180, 2582-2615 (2009).
- X. Gonze, B. Amadon, P.-M. Anglade, J.-M. Beuken, F. Bottin, P. Boulanger, F. Bruneval,
- D. Caliste, R. Caracas, M. Cote, T. Deutsch, L. Genovese, Ph. Ghosez, M. Giantomassi
- S. Goedecker, D.R. Hamann, P. Hermet, F. Jollet, G. Jomard, S. Leroux, M. Mancini, S. Mazevet,
- M.J.T. Oliveira, G. Onida, Y. Pouillon, T. Rangel, G.-M. Rignanese, D. Sangalli, R. Shaltaf,
- M. Torrent, M.J. Verstraete, G. Zerah, J.W. Zwanziger
- Comment: the third generic paper describing the ABINIT project.
- Note that a version of this paper, that is not formatted for Computer Phys. Comm. 
- is available at https://www.abinit.org/sites/default/files/ABINIT_CPC_v10.pdf .
- The licence allows the authors to put it on the Web.
- DOI and bibtex: see https://docs.abinit.org/theory/bibliography/#gonze2009
-
- Proc.   0 individual time (sec): cpu=          5.0  wall=          5.7

================================================================================

 Calculation completed.
.Delivered   2 WARNINGs and   2 COMMENTs to log file.
+Overall time at end (sec) : cpu=          5.0  wall=          5.7
